# vtk DataFile Version 2.0
Horizon data
ASCII
DATASET POLYDATA
POINTS  2812 float
  -2.10394725475093       -4.23152128615693       0.334857838147465     
  -2.10399615946407       -4.23034665568436       0.334850266552050     
  -2.10414178575946       -4.22918008399488       0.334845279932827     
  -2.10438313666159       -4.22802951196052       0.334842943638286     
  -2.10471856588869       -4.22690277093135       0.334843307449199     
  -2.10514578913556       -4.22580752999368       0.334846404321399     
  -2.10566189958921       -4.22475124434793       0.334852249198740     
  -2.10626338756758       -4.22374110513715       0.334860837930295     
  -2.10694616414712       -4.22278399104640       0.334872146325714     
  -2.10770558862201       -4.22188642198038       0.334886129381538     
  -2.10853649961615       -4.22105451511276       0.334902720709263     
  -2.10943324964847       -4.22029394358600       0.334921832193009     
  -2.11038974293278       -4.21960989812431       0.334943353900876     
  -2.11139947617523       -4.21900705180559       0.334967154269572     
  -2.11245558211529       -4.21848952822075       0.334993080576700     
  -2.11355087554001       -4.21806087322988       0.335020959709375     
  -2.11467790148585       -4.21772403050591       0.335050599231772     
  -2.11582898532839       -4.21748132103548       0.335081788747782     
  -2.11699628444641       -4.21733442672595       0.335114301548567     
  -2.11817184113462       -4.21728437824444       0.335147896528387     
  -2.11934763642784       -4.21733154719167       0.335182320345939     
  -2.12051564448949       -4.21747564268784       0.335217309802698     
  -2.12166788720835       -4.21771571242188       0.335252594404556     
  -2.12279648864094       -4.21805014818747       0.335287899068546     
  -2.12389372893150       -4.21847669590046       0.335322946932730     
  -2.12495209733912       -4.21899247006181       0.335357462224581     
  -2.12596434400121       -4.21959397259935       0.335391173141414     
  -2.12692353006502       -4.22027711598929       0.335423814695694     
  -2.12782307582473       -4.22103725052610       0.335455131478483     
  -2.12865680651024       -4.22186919557646       0.335484880295699     
  -2.12941899538630       -4.22276727462070       0.335512832634432     
  -2.13010440383617       -4.22372535385344       0.335538776920078     
  -2.13070831812321       -4.22473688408422       0.335562520529472     
  -2.13122658254653       -4.22579494565044       0.335583891530439     
  -2.13165562873239       -4.22689229602773       0.335602740124077     
  -2.13199250083195       -4.22802141979872       0.335618939772458     
  -2.13223487642752       -4.22917458061998       0.335632388001151     
  -2.13238108298284       -4.23034387480876       0.335643006872872     
  -2.13243010970882       -4.23152128615693       0.335650743135384     
  -2.13238161475275       -4.23269874156882       0.335655568053424     
  -2.13223592765694       -4.23386816711306       0.335657476940694     
  -2.13199404707065       -4.23502154407597       0.335656488413666     
  -2.13165763373715       -4.23615096460514       0.335652643393986     
  -2.13122899881507       -4.23724868653708       0.335646003890487     
  -2.13071108762916       -4.23830718701133       0.335636651595149     
  -2.13010745898057       -4.23931921448589       0.335624686329694     
  -2.12942226017944       -4.24027783878367       0.335610224380842     
  -2.12866019799362       -4.24117649881781       0.335593396762564     
  -2.12782650573575       -4.24200904766435       0.335574347442985     
  -2.12692690673714       -4.24276979467300       0.335553231571914     
  -2.12596757448063       -4.24345354433137       0.335530213742466     
  -2.12495508968543       -4.24405563162373       0.335505466316856     
  -2.12389639465577       -4.24457195365260       0.335479167842471     
  -2.12279874522088       -4.24499899731918       0.335451501579696     
  -2.12166966060770       -4.24533386288766       0.335422654158045     
  -2.12051687159855       -4.24557428328747       0.335392814371849     
  -2.11934826733484       -4.24571863903734       0.335362172121433     
  -2.11817184113462       -4.24576596870490       0.335330917500391     
  -2.11699563569564       -4.24571597484543       0.335299240024465     
  -2.11582768805795       -4.24556902539389       0.335267327992751     
  -2.11467597469982       -4.24532615051390       0.335235367967645     
  -2.11354835713826       -4.24498903493767       0.335203544356219     
  -2.11245252840113       -4.24456000586020       0.335172039072666     
  -2.11139596073076       -4.24404201648070       0.335141031259169     
  -2.11038585487011       -4.24343862531250       0.335110697041081     
  -2.10942909127113       -4.24275397141118       0.335081209291710     
  -2.10853218355125       -4.24199274569741       0.335052737382237     
  -2.10770123450838       -4.24116015857744       0.335025446893444     
  -2.10694189498646       -4.24026190408858       0.334999499267838     
  -2.10625932586358       -4.23930412082039       0.334975051383496     
  -2.10565816341255       -4.23829334988363       0.334952255034342     
  -2.10514248825986       -4.23723649021851       0.334931256305522     
  -2.10471579814339       -4.23614075155068       0.334912194837064     
  -2.10438098464212       -4.23501360531869       0.334895202973744     
  -2.10414031402335       -4.23386273390831       0.334880404804151     
  -2.10399541232369       -4.23269597853932       0.334867915096963     
  -2.07567036990610       -4.23152128615693       0.331900105786159     
  -2.07581944261995       -4.22801186636055       0.331869478031683     
  -2.07625692437687       -4.22452692361798       0.331845558392936     
  -2.07697975700444       -4.22109003376890       0.331828786091668     
  -2.07798297056676       -4.21772442946414       0.331819574175924     
  -2.07925972072813       -4.21445284762977       0.331818300206119     
  -2.08080133874087       -4.21129738161585       0.331825289029736     
  -2.08259739070687       -4.20827933769997       0.331840811361779     
  -2.08463574924955       -4.20541909811251       0.331865067178202     
  -2.08690267417516       -4.20273599015866       0.331898177582094     
  -2.08938290262635       -4.20024816237684       0.331940176192351     
  -2.09205974794994       -4.19797246814740       0.331991001832852     
  -2.09491520670734       -4.19592435717821       0.332050492762440     
  -2.09793007328516       -4.19411777526045       0.332118382653251     
  -2.10108406159001       -4.19256507267195       0.332194298486407     
  -2.10435593341679       -4.19127692184897       0.332277758467960     
  -2.10772363247617       -4.19026224322915       0.332368182361485     
  -2.11116442498542       -4.18952814340161       0.332464883250384     
  -2.11465504438607       -4.18907986106917       0.332567082025307     
  -2.11817184113462       -4.18892072493697       0.332673913790692     
  -2.12169093635897       -4.18905212259141       0.332784438171783     
  -2.12518837880746       -4.18947348110725       0.332897651367294     
  -2.12864030432576       -4.19018225988835       0.333012499721148     
  -2.13202309699500       -4.19117395622738       0.333127894543688     
  -2.13531355076129       -4.19244212446887       0.333242724101218     
  -2.13848903163438       -4.19397840640971       0.333355885662775     
  -2.14152763638689       -4.19577258023665       0.333466278047280     
  -2.14440835020634       -4.19781261861247       0.333572834230957     
  -2.14711119922913       -4.20008476314841       0.333674533433294     
  -2.14961739756843       -4.20257361220864       0.333770416300602     
  -2.15190948722233       -4.20526222217966       0.333859598897332     
  -2.15397146941747       -4.20813222166475       0.333941285191665     
  -2.15578892598171       -4.21116393786534       0.334014777760312     
  -2.15734912941355       -4.21433653421680       0.334079486483862     
  -2.15864113984923       -4.21762815835976       0.334134930316172     
  -2.15965589132909       -4.22101609792007       0.334180760912488     
  -2.16038625769142       -4.22447694594089       0.334216735189717     
  -2.16082710897420       -4.22798676989278       0.334242734052460     
  -2.16097534920312       -4.23152128615693       0.334258754939741     
  -2.16082993861829       -4.23505603689209       0.334264906881878     
  -2.16039189968979       -4.23856656785599       0.334261403585693     
  -2.15966430702645       -4.24202860553781       0.334248554778635     
  -2.15865226147719       -4.24541823201381       0.334226756082937     
  -2.15736284858083       -4.24871205588178       0.334196474988250     
  -2.15580508398768       -4.25188737872408       0.334158250142523     
  -2.15398984148357       -4.25492235371896       0.334112661031554     
  -2.15192977148691       -4.25779613801105       0.334060327081467     
  -2.14963920562923       -4.26048903583946       0.334001892107027     
  -2.14713405055478       -4.26298263232229       0.333938012166978     
  -2.14443167160811       -4.26525991703901       0.333869344184562     
  -2.14155076744403       -4.26730539679586       0.333796535589342     
  -2.13851123658985       -4.26910519706805       0.333720215199341     
  -2.13533403697485       -4.27064715170765       0.333640985520920     
  -2.13204103958558       -4.27192088106731       0.333559420571502     
  -2.12865487617642       -4.27291785536243       0.333476045164580     
  -2.12519878470729       -4.27363145034555       0.333391356350619     
  -2.12169644967134       -4.27405698550792       0.333305806433484     
  -2.11817184113462       -4.27419175176494       0.333219807217789     
  -2.11464905223379       -4.27403502576848       0.333133731946089     
[...]
POINT_DATA  2812

SCALARS shape float 1
LOOKUP_TABLE default
  0.335945705306746     
  0.335953448546178     
  0.335958277815553     
  0.335960188424346     
  0.335959199005819     
  0.335955350518522     
  0.335948705027210     
  0.335939344297538     
  0.335927368241252     
  0.335912893249943     
  0.335896050455739     
  0.335876983956599     
  0.335855849042257     
  0.335832810454262     
  0.335808040710276     
  0.335781718518706     
  0.335754027305212     
  0.335725153867618     
  0.335695287170519     
  0.335664617285500     
  0.335633334477591     
  0.335601628433448     
  0.335569687621983     
  0.335537698773843     
  0.335505846462408     
  0.335474312765930     
  0.335443276988148     
  0.335412915413255     
  0.335383401070463     
  0.335354903483702     
  0.335327588383080     
  0.335301617356701     
  0.335277147424124     
  0.335254330516164     
  0.335233312849716     
  0.335214234190741     
  0.335197227003371     
  0.335182415488102     
  0.335169914517117     
  0.335159828479758     
  0.335152250055928     
  0.335147258939540     
  0.335144920538020     
  0.335145284677034     
  0.335148384342137     
  0.335154234490660     
  0.335162830967932     
  0.335174149561786     
  0.335188145228179     
  0.335204751518733     
  0.335223880238101     
  0.335245421355242     
  0.335269243188216     
  0.335295192876889     
  0.335323097152260     
  0.335352763404954     
  0.335383981049116     
  0.335416523171452     
  0.335450148448784     
  0.335484603311332     
  0.335519624323205     
  0.335554940746355     
  0.335590277249728     
  0.335625356721702     
  0.335659903141045     
  0.335693644459946     
  0.335726315451894     
  0.335757660477610     
  0.335787436123689     
  0.335815413671138     
  0.335841381354545     
  0.335865146377027     
  0.335886536651354     
  0.335905402243529     
  0.335921616501504     
  0.335935076858433     
  0.335169914517117     
  0.335159828479758     
  0.335152250055928     
  0.335147258939540     
  0.335144920538020     
  0.335145284677034     
  0.335148384342137     
  0.335154234490660     
  0.335162830967932     
  0.335174149561786     
  0.335188145228179     
  0.335204751518733     
  0.335223880238101     
  0.335245421355242     
  0.335269243188216     
  0.335295192876889     
  0.335323097152260     
  0.335352763404954     
  0.335383981049116     
  0.335416523171452     
  0.335450148448784     
  0.335484603311332     
  0.335519624323205     
  0.335554940746354     
  0.335590277249728     
  0.335625356721702     
  0.335659903141045     
  0.335693644459946     
  0.335726315451894     
  0.335757660477610     
  0.335787436123689     
  0.335815413671138     
  0.335841381354545     
  0.335865146377027     
  0.335886536651354     
  0.335905402243529     
  0.335921616501504     
  0.335935076858433     
  0.335945705306746     
  0.335953448546178     
  0.335958277815553     
  0.335960188424346     
  0.335959199005819     
  0.335955350518522     
  0.335948705027210     
  0.335939344297538     
  0.335927368241252     
  0.335912893249943     
  0.335896050455739     
  0.335876983956599     
  0.335855849042257     
  0.335832810454262     
  0.335808040710276     
  0.335781718518706     
  0.335754027305212     
  0.335725153867618     
  0.335695287170519     
  0.335664617285500     
  0.335633334477591     
  0.335601628433448     
  0.335569687621983     
  0.335537698773843     
  0.335505846462408     
  0.335474312765930     
  0.335443276988148     
  0.335412915413255     
  0.335383401070463     
  0.335354903483702     
  0.335327588383080     
  0.335301617356701     
  0.335277147424124     
  0.335254330516164     
  0.335233312849716     
  0.335214234190741     
  0.335197227003371     
  0.335182415488102     
  0.334647485638140     
  0.334610303603240     
  0.334579425751606     
  0.334555310792184     
  0.334538401533279     
  0.334529114395763     
  0.334527830023099     
  0.334534875915376     
  0.334550524998178     
  0.334574978880404     
  0.334608359654033     
  0.334650701212484     
  0.334701941880089     
  0.334761918594963     
  0.334830362854485     
  0.334906898593816     
  0.334991040084823     
  0.335082202353042     
  0.335179692872716     
  0.335282726172522     
  0.335390430294415     
  0.335501857184819     
  0.335615994845703     
  0.335731781017150     
  0.335848118119582     
  0.335963885341219     
  0.336077970946521     
  0.336189264762494     
  0.336296691052361     
  0.336399220700219     
  0.336495886518581     
  0.336585797353943     
  0.336668150674326     
  0.336742243361489     
  0.336807480477282     
  0.336863377047482     
  0.336909581882853     
  0.336945849915359     
  0.336972061077104     
  0.336988212786198     
  0.336994414963270     
  0.336990883060207     
  0.336977929333602     
  0.336955952636221     
  0.336925424275096     
  0.336886887296618     
  0.336840925918491     
  0.336788164624890     
  0.336729252487782     
  0.336664850923090     
  0.336595622218298     
  0.336522219089686     
  0.336445275490018     
  0.336365398845544     
  0.336283167860942     
  0.336199111635177     
  0.336113731277482     
  0.336027482785099     
  0.335940781325317     
  0.335854003188480     
  0.335767489110958     
  0.335681548787499     
  0.335596466360323     
  0.335512508621230     
  0.335429923580698     
  0.335348959763832     
  0.335269864840623     
  0.335192894135363     
  0.335118316530575     
  0.335046419527120     
  0.334977513241886     
  0.334911933155886     
  0.334850041462768     
  0.334792229699051     
  0.334738905633363     
  0.334690507024593     
  0.334375632261464     
  0.334302387873829     
  0.334237639731672     
  0.334182508149507     
  0.334138131911272     
  0.334105635727347     
  0.334086107369834     
  0.334080562733600     
  0.334089916341914     
  0.334114952807920     
  0.334156294119076     
  0.334214381090091     
  0.334289446241799     
  0.334381495242951     
  0.334490296438465     
  0.334615365333299     
  0.334755964218568     
  0.334911102361173     
  0.335079540492838     
  0.335259813106930     
  0.335450231021348     
  0.335648914254842     
  0.335853817773996     
  0.336062758931280     
  0.336273474479371     
  0.336483626024445     
  0.336690862306399     
  0.336892855969219     
  0.337087338377130     
  0.337272168559150     
  0.337445328484495     
  0.337604986312199     
  0.337749518717644     
  0.337877549432064     
  0.337987951307622     
  0.338079873741106     
  0.338152748184338     
  0.338206287199363     
  0.338240493046245     
  0.338255626835808     
  0.338252205109991     
  0.338230975277755     
  0.338192885329793     
  0.338139072846924     
  0.338070803507403     
  0.337989455947834     
  0.337896482720263     
  0.337793371782261     
  0.337681629548480     
  0.337562724735146     
  0.337438075361181     
  0.337309025919922     
  0.337176798897749     
  0.337042519638426     
  0.336907175985874     
  0.336771617092945     
  0.336636554508302     
  0.336502545236658     
  0.336370026378479     
  0.336239307109783     
  0.336110586831132     
  0.335983973917800     
  0.335859498925540     
  0.335737146855389     
  0.335616873653028     
  0.335498631451435     
  0.335382392676712     
  0.335268170094661     
  0.335156040978660     
  0.335046163417487     
  0.334938793852099     
  0.334834290484072     
  0.334733133655666     
  0.334635920432978     
  0.334543365173089     
  0.334456295847401     
  0.334346098052013     
  0.334228275650690     
  0.334119587550968     
  0.334022085454444     
  0.333937901146018     
  0.333869199795561     
  0.333818118217971     
  0.333786708450437     
  0.333776870523292     
  0.333790308340013     
  0.333828466816325     
  0.333892486277497     
  0.333983145763223     
  0.334100836726215     
  0.334245529524099     
  0.334416750957188     
  0.334613577594833     
  0.334834623701737     
  0.335078055522464     
  0.335341606313823     
  0.335622618438549     
  0.335918060934114     
  0.336224585451628     
  0.336538611585119     
  0.336856342892622     
  0.337173866495582     
  0.337487214160047     
  0.337792480404276     
  0.338085833095991     
  0.338363634841322     
  0.338622494293092     
  0.338859388257914     
  0.339071634432173     
  0.339256998160440     
  0.339413715817527     
  0.339540533750351     
  0.339636704037790     
  0.339701996685332     
  0.339736683623590     
  0.339741523304415     
  0.339717710287663     
  0.339666835947085     
  0.339590849784545     
  0.339491972914714     
  0.339372649161716     
  0.339235471825460     
  0.339083132137399     
  0.338918327656925     
  0.338743715474362     
  0.338561854544249     
  0.338375134171775     
  0.338185758353022     
  0.337995689521611     
  0.337806631931209     
  0.337619975593165     
  0.337436840992334     
  0.337258043841419     
  0.337084112686289     
  0.336915286986814     
  0.336751570184464     
  0.336592742471163     
  0.336438396043893     
  0.336287985916574     
  0.336140870406859     
  0.335996359385260     
  0.335853767804689     
  0.335712456670453     
  0.335571886505407     
  0.335431662688820     
  0.335291564588625     
  0.335151591411130     
  0.335011982141524     
  0.334873237048125     
  0.334736115030683     
  0.334601650617926     
  0.334471134249319     
  0.334545200688084     
  0.334374897245145     
  0.334212893440686     
  0.334062423419319     
  0.333926894703351     
  0.333809813682081     
  0.333714684630496     
  0.333644915235251     
  0.333603721432631     
  0.333594032734363     
  0.333618413324818     
  0.333678948659716     
  0.333777213799557     
  0.333914191621266     
  0.334090210899204     
  0.334304930477198     
  0.334557305017144     
  0.334845572392785     
  0.335167270533551     
  0.335519253805769     
  0.335897755340378     
  0.336298409970906     
  0.336716339306214     
  0.337146274605747     
  0.337582586730395     
  0.338019436580651     
  0.338450929738784     
  0.338871152474772     
  0.339274353507140     
  0.339655095569221     
  0.340008304805217     
  0.340329411680885     
  0.340614491038693     
  0.340860278468706     
  0.341064265448351     
  0.341224741402091     
  0.341340824104280     
  0.341412439795901     
  0.341440308035786     
  0.341425898179737     
  0.341371362489591     
  0.341279457436178     
  0.341153460840788     
  0.340997050771339     
  0.340814207588918     
  0.340609107911487     
  0.340386002200808     
  0.340149114269290     
  0.339902566512167     
  0.339650203357655     
  0.339395609160778     
  0.339142017099980     
  0.338892180031250     
  0.338648423963749     
  0.338412586924890     
  0.338185972528994     
  0.337969409036915     
  0.337763238634213     
  0.337567332061785     
  0.337381156786466     
  0.337203814461615     
  0.337034102958385     
  0.336870591025846     
  0.336711691310850     
  0.336555758522587     
  0.336401137774641     
  0.336246270288087     
  0.336089784796233     
  0.335930528318248     
  0.335767676080034     
  0.335600796461300     
  0.335429844889497     
  0.335255244768760     
  0.335077894068632     
  0.334899145777807     
  0.334720827691092     
  0.334954107913379     
  0.334724212552151     
  0.334500422787173     
  0.334287387258592     
  0.334090046383837     
  0.333913523925199     
  0.333762971081761     
  0.333643440735649     
  0.333559750777696     
  0.333516339348399     
  0.333517115681841     
  0.333565384160263     
  0.333663720612459     
  0.333813848158146     
  0.334016624906172     
  0.334271948591161     
  0.334578707765728     
  0.334934806181592     
  0.335337140464180     
  0.335781629079893     
  0.336263290697766     
  0.336776277099105     
  0.337313988368217     
  0.337869226634557     
  0.338434247129455     
  0.339001037354570     
  0.339561333299320     
  0.340106980914460     
  0.340629938519683     
  0.341122583625647     
  0.341577889243257     
  0.341989496896104     
  0.342351952221802     
  0.342660823736993     
  0.342912750409680     
  0.343105538320174     
  0.343238194129877     
  0.343310903538753     
  0.343325004094929     
  0.343282900118944     
  0.343187973816986     
  0.343044455392314     
  0.342857279540033     
  0.342631925227487     
  0.342374259968875     
  0.342090352755476     
  0.341786347471684     
  0.341468280640785     
  0.341141899685064     
  0.340812634177107     
  0.340485413690007     
  0.340164528930909     
  0.339853679648589     
  0.339555852731832     
  0.339273238283201     
  0.339007341624619     
  0.338758873047728     
  0.338527857741507     
  0.338313630106047     
  0.338114920966027     
  0.337929926216766     
  0.337756405435658     
  0.337591765066061     
  0.337433212842016     
  0.337277810254328     
  0.337122681027404     
  0.336965053002165     
  0.336802422505272     
  0.336632685100228     
  0.336454190277937     
  0.336265847099463     
  0.336067221812199     
  0.335858573616148     
  0.335640868913624     
  0.335415835481766     
  0.335185879344250     
  0.335549135434349     
  0.335253527746989     
  0.334960606940550     
  0.334676636035975     
  0.334408334326762     
  0.334162671193280     
  0.333946707795557     
  0.333767393949903     
  0.333631386030370     
  0.333544835952620     
  0.333513243724614     
  0.333541319099253     
  0.333632810415260     
  0.333790338384368     
  0.334015419855815     
  0.334308254127479     
  0.334667783279620     
  0.335091584710915     
  0.335575923728095     
  0.336115760792401     
  0.336704807054893     
  0.337335632390371     
  0.337999800065034     
  0.338687932024236     
  0.339390033212996     
  0.340095514691165     
  0.340793641872442     
  0.341473519645382     
  0.342124649998781     
  0.342736865240884     
  0.343300879738823     
  0.343808298171288     
  0.344251940101536     
  0.344625998174842     
  0.344926190271724     
  0.345149808746972     
  0.345295771345779     
  0.345364642778188     
  0.345358529784906     
  0.345281009412098     
  0.345136945293392     
  0.344932328733175     
  0.344674068243680     
  0.344369756877169     
  0.344027441398771     
  0.343655401268793     
  0.343261918508134     
  0.342855042043852     
  0.342442425803631     
  0.342031186429881     
  0.341627714489304     
  0.341237487426314     
  0.340865178307557     
  0.340514372560545     
  0.340187713165719     
  0.339886731398270     
  0.339612006654366     
  0.339363094214704     
  0.339138662187953     
  0.338936527604141     
  0.338753803515908     
  0.338586971128096     
  0.338432090873842     
  0.338284856713296     
  0.338140876263949     
  0.337995707388103     
  0.337845181026585     
  0.337685402317417     
  0.337513075056822     
  0.337325522966037     
  0.337120853372639     
  0.336898112420668     
  0.336657283294139     
  0.336399413217968     
  0.336126546442675     
  0.335841782500390     
  0.336301945154018     
  0.335935684745526     
  0.335567646279548     
  0.335205888201020     
  0.334859091296869     
  0.334536283490664     
  0.334246623129073     
  0.333999159992948     
  0.333802597772069     
  0.333664971345305     
  0.333593554983309     
  0.333594602761174     
  0.333673121056550     
  0.333832838880121     
  0.334075925942263     
  0.334403077123650     
  0.334813265518965     
  0.335303833023693     
  0.335870414320365     
  0.336507011695884     
  0.337206013916853     
  0.337958341357427     
  0.338753586019682     
  0.339580117655466     
  0.340425409352048     
  0.341276281014637     
  0.342119042954014     
  0.342940070607019     
  0.343725869376857     
  0.344463683258203     
  0.345141524598516     
  0.345748840646773     
  0.346276489084250     
  0.346717151284731     
  0.347065517851440     
  0.347318323860773     
  0.347474481888375     
  0.347535001725002     
  0.347502931327772     
  0.347383217662522     
  0.347182452400545     
  0.346908651604361     
  0.346570978832503     
  0.346179407904736     
  0.345744440500030     
  0.345276783034664     
  0.344787089782422     
  0.344285590563058     
  0.343782013356593     
  0.343285269311409     
  0.342803210084014     
  0.342342694472599     
  0.341909220256443     
  0.341507134396659     
  0.341139327871098     
  0.340807448224486     
  0.340511768465226     
  0.340251329602422     
  0.340023992649773     
  0.339826542650275     
  0.339654846540152     
  0.339503962606385     
  0.339368369094333     
  0.339242149790416     
  0.339119118983872     
  0.338993205111825     
  0.338858485904131     
  0.338709598256730     
  0.338541762062472     
  0.338351139566290     
  0.338134914460041     
  0.337891436317901     
  0.337620409887498     
  0.337322839456688     
  0.337001177123617     
  0.336659193083006     
  0.337180044876835     
  0.336739606060351     
  0.336292070529254     
  0.335847444480606     
  0.335416496464617     
  0.335010493026191     
  0.334640844017212     
  0.334318829543177     
  0.334055334375525     
  0.333860420201116     
  0.333743228623156     
  0.333711663792407     
  0.333772107609648     
  0.333929420321983     
  0.334186557524726     
  0.334544722758918     
  0.335003018596121     
  0.335558556849912     
  0.336206413982631     
  0.336939629064893     
  0.337749297732307     
  0.338624662329080     
  0.339553276939699     
  0.340521246338884     
  0.341513384219812     
  0.342513643132681     
  0.343505422921779     
  0.344472001340223     
  0.345396797715100     
  0.346264123005145     
  0.347059178140849     
  0.347768970274990     
  0.348382252257067     
  0.348890069346513     
  0.349285996612400     
  0.349566228065016     
  0.349729655691862     
  0.349777851975221     
  0.349714970645436     
  0.349547481117867     
  0.349283924340862     
  0.348934575591233     
  0.348511060774051     
  0.348025984222525     
  0.347492491391987     
  0.346923905785127     
  0.346333393756042     
  0.345733506353833     
  0.345136107816699     
  0.344551972831441     
  0.343990501933885     
  0.343459851946509     
  0.342966430270141     
  0.342515234208303     
  0.342109462301267     
  0.341750713470588     
  0.341438969659164     
  0.341172660220563     
  0.340948755301481     
  0.340762914518732     
  0.340609639961520     
  0.340482485501694     
  0.340374205671269     
  0.340277060387188     
  0.340183036652824     
  0.340084169953212     
  0.339972696207862     
  0.339841545536497     
  0.339684353297261     
  0.339495952792139     
  0.339272459729739     
  0.339011471070025     
  0.338712288916644     
  0.338375906505774     
  0.338005113533396     
  0.337604430706981     
  0.338147408539046     
  0.337630891770832     
  0.337101327978968     
  0.336570760743642     
  0.336052182267907     
  0.335559166589356     
  0.335105475210433     
  0.334704713856308     
  0.334370034800560     
  0.334113564470946     
  0.333946376481957     
  0.333878075191748     
  0.333916459208210     
  0.334067555881842     
  0.334335167875317     
  0.334721001915368     
  0.335224384051829     
  0.335842237955862     
  0.336569106328143     
  0.337397140993570     
  0.338316163377553     
  0.339313772192908     
  0.340375517242168     
  0.341485136091403     
  0.342624831538111     
  0.343775646398428     
  0.344917939924252     
  0.346031617316434     
  0.347097076242760     
  0.348095436258162     
  0.349008934025703     
  0.349821985863643     
  0.350521102112403     
  0.351095617594246     
  0.351537901607470     
  0.351843594800238     
  0.352011643904024     