# vtk DataFile Version 2.0
Horizon data
ASCII
DATASET POLYDATA
POINTS  2812 float
   1.74001573791400        3.37861181538478       0.465379287209538     
   1.73994713406270        3.38024424250911       0.465353718016011     
   1.73974388509321        3.38186532541042       0.465326101674310     
   1.73940740718364        3.38346397341899       0.465296662322002     
   1.73894002924737        3.38502925426183       0.465265643607228     
   1.73834497605112        3.38655046915068       0.465233305852534     
   1.73762634515140        3.38801722608587       0.465199922947248     
   1.73678907784478        3.38941951086630       0.465165779026486     
   1.73583892436976        3.39074775531976       0.465131164999321     
   1.73478240363605        3.39199290229431       0.465096374991672     
   1.73362675779259        3.39314646698154       0.465061702770851     
   1.73237990197688        3.39420059417407       0.465027438218468     
   1.73105036961592        3.39514811109388       0.464993863916621     
   1.72964725367327        3.39598257546235       0.464961251908935     
   1.72818014425723        3.39669831851921       0.464929860693335     
   1.72665906302279        3.39729048273325       0.464899932497407     
   1.72509439481397        3.39775505398428       0.464871690880097     
   1.72349681700518        3.39808888803186       0.464845338695490     
   1.72187722700868        3.39828973112244       0.464821056445668     
   1.72024666842255        3.39835623462231       0.464799001040427     
   1.71861625629756        3.39828796359929       0.464779304972142     
   1.71699710200439        3.39808539931144       0.464762075904576     
   1.71540023818306        3.39774993559600       0.464747396665115     
   1.71383654425551        3.39728386918725       0.464735325620989     
   1.71231667297899        3.39669038402663       0.464725897411857     
   1.71085097851311        3.39597352966394       0.464719124003640     
   1.70944944646608        3.39513819388351       0.464714996022117     
   1.70812162637622        3.39419006972438       0.464713484319531     
   1.70687656707304        3.39313561709895       0.464714541723462     
   1.70572275534737        3.39198201924932       0.464718104914665     
   1.70466805834254        3.39073713431499       0.464724096379364     
   1.70371967005847        3.38940944231949       0.464732426381836     
   1.70288406233639        3.38800798791603       0.464742994904852     
   1.70216694066565        3.38654231926334       0.464755693508694     
   1.70157320512406        3.38502242343241       0.464770407063945     
   1.70110691673030        3.38345865877137       0.464787015318891     
   1.70077126945148        3.38186168468028       0.464805394269074     
   1.70056856807061        3.38024238926849       0.464825417304074     
   1.70050021207847        3.37861181538478       0.464846956114756     
   1.70056668571224        3.37698108552442       0.464869881352830     
   1.70076755421974        3.37536132612676       0.464894063043273     
   1.70110146638386        3.37376359178303       0.464919370758850     
   1.70156616329718        3.37219878987493       0.464945673574227     
   1.70215849333228        3.37067760616226       0.464972839824931     
   1.70287443320939        3.36921043183060       0.465000736703268     
   1.70370911502044        3.36780729249955       0.465029229729194     
   1.70465685902703        3.36647777967743       0.465058182138797     
   1.70571121201091        3.36523098513045       0.465087454236343     
   1.70686499091753        3.36407543861355       0.465116902757714     
   1.70811033149870        3.36301904938626       0.465146380293344     
   1.70943874162745        3.36206905191077       0.465175734817610     
   1.71084115892780        3.36123195610124       0.465204809368798     
   1.71230801233482        3.36051350246298       0.465233441919661     
   1.71382928717477        3.35991862242830       0.465261465472968     
   1.71539459333249        3.35945140416276       0.465288708409758     
   1.71699323605281        3.35911506408042       0.465314995110265     
   1.71861428890486        3.35891192427128       0.465340146858942     
   1.72024666842255        3.35884339600664       0.465363983035981     
   1.72187920992135        3.35890996944996       0.465386322588364     
   1.72350074398104        3.35911120966154       0.465406985764113     
   1.72510017307596        3.35944575894470       0.465425796084369     
   1.72666654782936        3.35991134553961       0.465442582519333     
   1.72818914236602        3.36050479862856       0.465457181826387     
   1.72965752823889        3.36122206957287       0.465469441001977     
   1.73106164640960        3.36205825925802       0.465479219793382     
   1.73239187677164        3.36300765137886       0.465486393212406     
   1.73363910471696        3.36406375145279       0.465490853990565     
   1.73479478426367        3.36521933130464       0.465492514914442     
   1.73585099728326        3.36646647872405       0.465491310980723     
   1.73680050839126        3.36779665195452       0.465487201312936     
   1.73763681509475        3.36920073863370       0.465480170786026     
   1.73835419282424        3.37066911876736       0.465470231310559     
   1.73894773451529        3.37219173128592       0.465457422735354     
   1.73941338444691        3.37375814370194       0.465441813335574     
   1.73974796608839        3.37535762436149       0.465423499862433     
   1.73994920375395        3.37697921676095       0.465402607140582     
   1.77950874872206        3.37861181538478       0.462786114267870     
   1.77929562396385        3.38350475134118       0.462702154802861     
   1.77867821935782        3.38836231669955       0.462609785436285     
   1.77766106403828        3.39315111496189       0.462509960436634     
   1.77625145466581        3.39783828278710       0.462403746621158     
   1.77445939135206        3.40239172043870       0.462292298237611     
   1.77229749829827        3.40678031586678       0.462176865747386     
   1.76978091745482        3.41097415546367       0.462058730111569     
   1.76692719408023        3.41494472689115       0.461939209744375     
   1.76375614242697        3.41866510780444       0.461819630447555     
   1.76028969835708        3.42211014135860       0.461701302669723     
   1.75655175954434        3.42525659741164       0.461585499404906     
   1.75256801476808        3.42808331883710       0.461473435218452     
   1.74836576375153        3.43057135253385       0.461366246850994     
   1.74397372892332        3.43270406486785       0.461264975804370     
   1.73942186042869        3.43446724150159       0.461170554126380     
   1.73474113536092        3.43584917091388       0.461083788435941     
   1.72996335290804        3.43684071317246       0.461005355507090     
   1.72512092562743        3.43743535191844       0.460935792305590     
   1.72024666842255        3.43762923109064       0.460875493242999     
   1.71537358588253        3.43742117582165       0.460824709722207     
   1.71053465891045        3.43681269759284       0.460783552712751     
   1.70576263152379        3.43580798361885       0.460751998229142     
   1.70108979873404        3.43441387041363       0.460729895520420     
   1.69654779642970        3.43263980154274       0.460716978237492     
   1.69216739443552        3.43049776913893       0.460712875081158     
   1.68797829344201        3.42800224012713       0.460717127683773     
   1.68400892748428        3.42517006589408       0.460729204402270     
   1.68028627285106        3.42202037651148       0.460748517799852     
   1.67683566488642        3.41857445935254       0.460774442099064     
   1.67368062404139        3.41485562253702       0.460806330676196     
   1.67084269259142        3.41088904373349       0.460843533130400     
   1.66834128344408        3.40670160502455       0.460885411472519     
   1.66619354243812        3.40232171472793       0.460931355002344     
   1.66441422496869        3.39777911743277       0.460980797675751     
   1.66301559127530        3.39310469242095       0.461033212023727     
   1.66200731376130        3.38833024481385       0.461088143863115     
   1.66139640758780        3.38348828702839       0.461145201457461     
   1.66118717769587        3.37861181538478       0.461204063136170     
   1.66138118579840        3.37373408242774       0.461264477991525     
   1.66197723718732        3.36888836706319       0.461326263803624     
   1.66297138745413        3.36410774442083       0.461389302292699     
   1.66435696899213        3.35942485733522       0.461453531880317     
   1.66612463658764        3.35487169113328       0.461518941130867     
   1.66826243364886        3.35047935436975       0.461585545385971     
   1.67075587298834        3.34627786495842       0.461653392093279     
   1.67358803850643        3.34229594601814       0.461722534773051     
   1.67673970134141        3.33856083075059       0.461793021383332     
   1.68018945157279        3.33509807831286       0.461864879632991     
   1.68391384398970        3.33193140159915       0.461938102685476     
   1.68788755676769        3.32908250782337       0.462012635746713     
   1.69208356189570        3.32657095266518       0.462088364008063     
   1.69647330621060        3.32441400863251       0.462165102378734     
   1.70102690191608        3.32262654818430       0.462242587564628     
   1.70571332554402        3.32122094223979       0.462320471774539     
   1.71050062417959        3.32020697421654       0.462398320921023     
   1.71535612806661        3.31959177044166       0.462475614029173     
   1.72024666842255        3.31937974705235       0.462551746497532     
   1.72513879944780        3.31957257391778       0.462626036214984     
[...]
POINT_DATA  2812

SCALARS shape float 1
LOOKUP_TABLE default
  0.465244618428368     
  0.465266176663749     
  0.465289122576865     
  0.465313326075479     
  0.465338656614728     
  0.465364983151204     
  0.465392173901693     
  0.465420095938729     
  0.465448614660988     
  0.465477593181216     
  0.465506891677699     
  0.465536366757111     
  0.465565870876951     
  0.465595251874488     
  0.465624352646456     
  0.465653011019481     
  0.465681059845728     
  0.465708327351463     
  0.465734637758536     
  0.465759812190226     
  0.465783669863836     
  0.465806029563063     
  0.465826711373823     
  0.465845538658099     
  0.465862340231849     
  0.465876952705234     
  0.465889222936718     
  0.465899010547090     
  0.465906190435436     
  0.465910655236532     
  0.465912317658307     
  0.465911112638825     
  0.465906999264749     
  0.465899962397384     
  0.465890013958036     
  0.465877193831464     
  0.465861570354403     
  0.465843240365323     
  0.465822328801446     
  0.465798987839407     
  0.465773395586394     
  0.465745754338996     
  0.465716288436914     
  0.465685241748024     
  0.465652874829643     
  0.465619461818104     
  0.465585287104771     
  0.465550641861070     
  0.465515820478178     
  0.465481116988340     
  0.465446821534595     
  0.465413216953885     
  0.465380575535177     
  0.465349156009523     
  0.465319200822959     
  0.465290933736048     
  0.465264557785819     
  0.465240253637138     
  0.465218178341309     
  0.465198464510196     
  0.465181219904658     
  0.465166527426777     
  0.465154445496424     
  0.465145008784495     
  0.465138229267705     
  0.465134097563377     
  0.465132584497467     
  0.465133642855014     
  0.465137209259668     
  0.465143206127748     
  0.465151543642603     
  0.465162121696803     
  0.465174831752835     
  0.465189558577453     
  0.465206181810493     
  0.465224577335666     
  0.465822328801446     
  0.465798987839407     
  0.465773395586394     
  0.465745754338996     
  0.465716288436914     
  0.465685241748024     
  0.465652874829643     
  0.465619461818104     
  0.465585287104771     
  0.465550641861070     
  0.465515820478178     
  0.465481116988340     
  0.465446821534595     
  0.465413216953885     
  0.465380575535177     
  0.465349156009523     
  0.465319200822959     
  0.465290933736048     
  0.465264557785819     
  0.465240253637138     
  0.465218178341309     
  0.465198464510196     
  0.465181219904658     
  0.465166527426777     
  0.465154445496424     
  0.465145008784495     
  0.465138229267705     
  0.465134097563377     
  0.465132584497467     
  0.465133642855014     
  0.465137209259668     
  0.465143206127748     
  0.465151543642603     
  0.465162121696803     
  0.465174831752835     
  0.465189558577453     
  0.465206181810493     
  0.465224577335666     
  0.465244618428368     
  0.465266176663749     
  0.465289122576865     
  0.465313326075479     
  0.465338656614728     
  0.465364983151204     
  0.465392173901693     
  0.465420095938729     
  0.465448614660988     
  0.465477593181216     
  0.465506891677699     
  0.465536366757111     
  0.465565870876951     
  0.465595251874488     
  0.465624352646455     
  0.465653011019481     
  0.465681059845728     
  0.465708327351463     
  0.465734637758536     
  0.465759812190226     
  0.465783669863836     
  0.465806029563063     
  0.465826711373823     
  0.465845538658099     
  0.465862340231849     
  0.465876952705234     
  0.465889222936718     
  0.465899010547090     
  0.465906190435436     
  0.465910655236532     
  0.465912317658307     
  0.465911112638825     
  0.465906999264749     
  0.465899962397384     
  0.465890013958036     
  0.465877193831464     
  0.465861570354403     
  0.465843240365323     
  0.466640422175117     
  0.466565088407374     
  0.466480443354277     
  0.466387319726851     
  0.466286679585863     
  0.466179598459874     
  0.466067240021885     
  0.465950864944184     
  0.465831764647806     
  0.465711268312745     
  0.465590712566856     
  0.465471418559488     
  0.465354669679560     
  0.465241690410199     
  0.465133626774327     
  0.465031528778374     
  0.464936336080968     
  0.464848861887638     
  0.464769788498754     
  0.464699657264784     
  0.464638865817933     
  0.464587667613974     
  0.464546174528587     
  0.464514362380424     
  0.464492079187539     
  0.464479056425910     
  0.464474919764418     
  0.464479207092524     
  0.464491382425923     
  0.464510853530981     
  0.464536989520331     
  0.464569138490124     
  0.464606644728535     
  0.464648865036773     
  0.464695183727836     
  0.464745030135448     
  0.464797872483443     
  0.464853252879938     
  0.464910776389675     
  0.464970118715393     
  0.465031026900537     
  0.465093317237250     
  0.465156870479930     
  0.465221624547308     
  0.465287567910397     
  0.465354716036092     
  0.465423116759488     
  0.465492824037875     
  0.465563886220907     
  0.465636331243719     
  0.465710152213931     
  0.465785293890039     
  0.465861640525909     
  0.465939005519353     
  0.466017123426291     
  0.466095643615558     
  0.466174128455082     
  0.466252052715827     
  0.466328806859340     
  0.466403703204589     
  0.466475985048013     
  0.466544838558738     
  0.466609407185425     
  0.466668808307529     
  0.466722151283448     
  0.466768557445362     
  0.466807180264908     
  0.466837225998749     
  0.466857973933444     
  0.466868795711956     
  0.466869173194282     
  0.466858714339319     
  0.466837166645354     
  0.466804421473964     
  0.466760547115018     
  0.466705754376149     
  0.467689526305208     
  0.467555277164174     
  0.467401347728874     
  0.467229515601372     
  0.467041870172318     
  0.466840795929636     
  0.466628885951628     
  0.466408914150410     
  0.466183773535290     
  0.465956413299081     
  0.465729800770756     
  0.465506833405076     
  0.465290303215057     
  0.465082841465271     
  0.464886868545003     
  0.464704556638935     
  0.464537792211182     
  0.464388148323313     
  0.464256865689582     
  0.464144831513809     
  0.464052586676328     
  0.463980320423947     
  0.463927882333954     
  0.463894800024582     
  0.463880302297887     
  0.463883351285966     
  0.463902677306453     
  0.463936819600433     
  0.463984172727760     
  0.464043023881923     
  0.464111614282494     
  0.464188179102000     
  0.464270996964535     
  0.464358430665381     
  0.464448973857726     
  0.464541282952971     
  0.464634208408067     
  0.464726820628112     
  0.464818415940671     
  0.464908540758831     
  0.464996981373523     
  0.465083758220809     
  0.465169111273721     
  0.465253470289611     
  0.465337434251862     
  0.465421729253504     
  0.465507169375229     
  0.465594615751962     
  0.465684918971273     
  0.465778890430625     
  0.465877246109662     
  0.465980565191496     
  0.466089255187439     
  0.466203510413274     
  0.466323289259069     
  0.466448291986955     
  0.466577947332808     
  0.466711409347119     
  0.466847559087094     
  0.466985018671824     
  0.467122172275467     
  0.467257194750420     
  0.467388092159574     
  0.467512739492998     
  0.467628933413457     
  0.467734444516218     
  0.467827073482851     
  0.467904707013661     
  0.467965375416676     
  0.468007306851271     
  0.468028972092624     
  0.468029156501130     
  0.468006957278173     
  0.467961841949662     
  0.467893663948912     
  0.467802669298852     
  0.468954384246530     
  0.468754634265974     
  0.468521710786150     
  0.468258659576207     
  0.467969119957694     
  0.467657218423469     
  0.467327490559660     
  0.466984772320591     
  0.466634116575815     
  0.466280646938963     
  0.465929472932244     
  0.465585577159426     
  0.465253725131468     
  0.464938358576503     
  0.464643521870552     
  0.464372792972220     
  0.464129201940790     
  0.463915216483384     
  0.463732689224332     
  0.463582843843522     
  0.463466257928469     
  0.463382889386166     
  0.463332085362645     
  0.463312621406872     
  0.463322744176315     
  0.463360231467852     
  0.463422457633073     
  0.463506478327529     
  0.463609097720755     
  0.463726967401923     
  0.463856675875655     
  0.463994836695810     
  0.464138185805530     
  0.464283661989342     
  0.464428488939804     
  0.464570241295541     
  0.464706912402914     
  0.464836956084853     
  0.464959320556020     
  0.465073460781827     
  0.465179344970650     
  0.465277433937979     
  0.465368646532153     
  0.465454315477725     
  0.465536123267369     
  0.465616029677423     
  0.465696186089542     
  0.465778849757470     
  0.465866287645464     
  0.465960684474273     
  0.466064041112634     
  0.466178099629095     
  0.466304254666260     
  0.466443486851516     
  0.466596292246511     
  0.466762654782346     
  0.466942006033398     
  0.467133212427584     
  0.467334583572003     
  0.467543883498693     
  0.467758371351218     
  0.467974865379817     
  0.468189793089355     
  0.468399284737783     
  0.468599261791984     
  0.468785555370046     
  0.468953987730865     
  0.469100503056824     
  0.469221269828420     
  0.469312814534448     
  0.469372079998740     
  0.469396546987519     
  0.469384299485445     
  0.469334114055103     
  0.469245462864904     
  0.469118565298484     
  0.470413972479832     
  0.470142659074142     
  0.469821810802487     
  0.469456080817325     
  0.469051042309066     
  0.468613035600664     
  0.468149021442812     
  0.467666419734792     
  0.467172925155013     
  0.466676337563458     
  0.466184407486291     
  0.465704622211969     
  0.465244102816130     
  0.464809466370251     
  0.464406635124537     
  0.464040809519827     
  0.463716353607160     
  0.463436702375767     
  0.463204358825838     
  0.463020848793192     
  0.462886704010629     
  0.462801499323037     
  0.462763874201536     
  0.462771595972284     
  0.462821618689400     
  0.462910179617666     
  0.463032918599494     
  0.463184964005002     
  0.463361083211838     
  0.463555837895855     
  0.463763681370825     
  0.463979145382763     
  0.464196984289543     
  0.464412292882476     
  0.464620658598024     
  0.464818273436517     
  0.465002040068508     
  0.465169644445411     
  0.465319614114058     
  0.465451346496390     
  0.465565110836801     
  0.465662020558752     
  0.465743976725678     
  0.465813589108828     
  0.465874070240600     
  0.465929107723814     
  0.465982731582151     
  0.466039157914909     
  0.466102635051330     
  0.466177267739283     
  0.466266885300983     
  0.466374887645156     
  0.466504086053095     
  0.466656620111020     
  0.466833843284900     
  0.467036235383886     
  0.467263367280079     
  0.467513863454336     
  0.467785409094513     
  0.468074769232108     
  0.468377845954913     
  0.468689784607715     
  0.469005037194222     
  0.469317518483241     
  0.469620778847981     
  0.469908114494828     
  0.470172783393129     
  0.470408200470042     
  0.470608103479700     
  0.470766724219770     
  0.470878978189877     
  0.470940630878644     
  0.470948398918222     
  0.470900071707130     
  0.470794603614065     
  0.470632126565230     
  0.472041750418448     
  0.471693535547247     
  0.471276887744977     
  0.470798398467021     
  0.470265958806908     
  0.469688559632477     
  0.469076041584977     
  0.468438863552831     
  0.467787830227665     
  0.467133863756506     
  0.466487705027791     
  0.465859748054774     
  0.465259802790829     
  0.464696839703637     
  0.464178940622438     
  0.463713095268950     
  0.463305041911272     
  0.462959299611686     
  0.462679001305630     
  0.462465941862846     
  0.462320530519814     
  0.462241834780677     
  0.462227622807026     
  0.462274448127972     
  0.462377722362159     
  0.462531886982061     
  0.462730480132809     
  0.462966404581613     
  0.463232000130406     
  0.463519297893626     
  0.463820255889032     
  0.464126892966954     
  0.464431566176014     
  0.464727166385018     
  0.465007293145961     
  0.465266467019332     
  0.465500260214428     
  0.465705436219380     
  0.465880024394946     
  0.466023374448957     
  0.466136158830811     
  0.466220333806891     
  0.466279054290306     
  0.466316556627265     
  0.466337989126967     
  0.466349236862974     
  0.466356693760737     
  0.466367056231858     
  0.466387047651158     
  0.466423217805403     
  0.466481708092614     
  0.466567978518353     
  0.466686686193232     
  0.466841473963504     
  0.467034787444400     
  0.467267832391373     
  0.467540434715643     
  0.467851026901241     
  0.468196643721094     
  0.468572939080229     
  0.468974269281496     
  0.469393832607995     
  0.469823755715766     
  0.470255373831951     
  0.470679324593432     
  0.471085933242966     
  0.471465331046187     
  0.471807831804542     
  0.472104202598474     
  0.472345862612050     
  0.472525235715557     
  0.472635935415368     
  0.472672965852311     
  0.472632925727069     
  0.472514072223100     
  0.472316424345423     
  0.473805908167420     
  0.473376396484656     
  0.472857422100370     
  0.472257815484548     
  0.471588175434850     
  0.470860510322657     
  0.470087973200258     
  0.469284444707870     
  0.468464259843585     
  0.467641755982196     
  0.466831050674351     
  0.466045681490742     
  0.465298365529533     
  0.464600648378433     
  0.463962891204558     
  0.463393893021573     
  0.462900944856571     
  0.462489561595264     
  0.462163567566736     
  0.461924949005391     
  0.461773938116348     
  0.461708992248859     
  0.461726903181213     
  0.461822834864458     
  0.461990527587014     
  0.462222342665770     
  0.462509582140084     
  0.462842535813254     
  0.463210902101382     
  0.463603847379846     
  0.464010474256459     
  0.464419946526868     
  0.464821883353077     
  0.465206600102745     
  0.465565434892373     
  0.465890933245109     
  0.466177134563478     
  0.466419708139640     
  0.466616112404666     
  0.466765644468417     
  0.466869465204476     
  0.466930532941591     
  0.466953506899567     
  0.466944546517619     
  0.466911120433145     
  0.466861700175490     
  0.466805510475627     
  0.466752133842649     
  0.466711255900677     
  0.466692292203749     
  0.466704098600898     
  0.466754582829781     
  0.466850584909251     
  0.466997475574456     
  0.467199102600829     
  0.467457509892876     
  0.467772924880584     
  0.468143633637939     
  0.468565999056587     
  0.469034491102827     
  0.469541807147807     
  0.470078936934596     
  0.470635488490402     
  0.471199763650050     
  0.471759243995982     
  0.472300687918615     
  0.472810759393289     
  0.473276124173957     
  0.473684086500402     
  0.474022790326100     
  0.474281719060862     
  0.474451943058010     
  0.474526486199233     
  0.474500482401445     
  0.474371406802158     
  0.474139121950240     
  0.475669878246038     
  0.475155833645941     
  0.474529631383129     
  0.473802633530291     
  0.472988460308078     
  0.472102509983461     
  0.471161536212210     
  0.470183238384832     
  0.469185717191571     
  0.468187059220296     
  0.467204930491766     
  0.466256258114891     
  0.465356679504114     
  0.464520571217533     
  0.463760471813932     
  0.463087200137344     
  0.462509428832612     
  0.462033801907487     
  0.461664702033092     
  0.461404320924539     
  0.461252637560168     
  0.461207448799545     
  0.461264477525131     
  0.461417432472944     
  0.461658209016927     
  0.461977075502105     
  0.462362782885090     
  0.462803006251730     
  0.463284410990346     
  0.463793217013633     
  0.464315267854654     
  0.464836707584983     
  0.465344065872127     
  0.465824840608566     
  0.466267781932057     
  0.466663265468124     
  0.467003559175107     
  0.467283117796890     
  0.467498730562340     
  0.467649635504585     
  0.467737543384904     
  0.467766555165148     
  0.467743035638078     
  0.467675350187543     
  0.467573567015089     
  0.467449135447944     
  0.467314430731856     
  0.467182344852847     
  0.467065854809693     
  0.466977640694304     
  0.466929495254924     
  0.466932195745942     
  0.466994885797734     
  0.467125021872168     
  0.467327904617276     
  0.467606648321605     
  0.467961918553764     
  0.468391931318180     
  0.468892387155507     
  0.469456535773272     
  0.470075300477758     
  0.470737372567549     
  0.471429548356889     
  0.472137020850661     
  0.472843595459108     
  0.473532359543941     
  0.474185881488846     
  0.474786966174034     
  0.475318876504389     
  0.475766210842896     
  0.476115033004459     
  0.476353605102858     
  0.476472626517604     
  0.476465634676410     
  0.476329178703313     
  0.476062973678457     
  0.477592933719922     
  0.476992505247210     
  0.476256095001707     
  0.475397857648978     
  0.474434658038632     
  0.473385589059809     
  0.472271309070535     
  0.471113493962475     
  0.469934270540973     
  0.468755620835228     
  0.467598901765568     
  0.466484488645232     
  0.465431059368151     
  0.464455739566433     
  0.463573337738589     
  0.462796577466218     
  0.462135572869052     
  0.461597932921443     
  0.461188640615967     
  0.460910030964099     
  0.460761788176699     
  0.460741016998650     
  0.460842323921936     
  0.461057957874527     
  0.461377920327137     
  0.461790239440965     
  0.462281186270931     
  0.462835612876696     
  0.463437118389269     
  0.464068733913732     
  0.464712954106342     
  0.465352638583510     
  0.465971041809377     
  0.466552612724646     
  0.467083311107545     
  0.467551106065590     
  0.467946367007780     
  0.468262178888719     
  0.468494587762297     
  0.468642757825553     
  0.468708992305680     
  0.468698651157687     
  0.468619946434956     
  0.468483677894115     
  0.468302790416085     
  0.468091930277865     
  0.467866945446159     
  0.467644306816937     
  0.467440563899491     
  0.467271891262416     
  0.467153302036631     
  0.467098567454360     
  0.467119380329345     
  0.467225361190199     
  0.467423452402980     
  0.467717850073908     
  0.468109793684903     
  0.468597454034395     
  0.469175903661673     
  0.469837168703340     
  0.470570343269729     
  0.471361810917004     
  0.472195429406080     
  0.473053007421926     
  0.473914680590862     
  0.474759459568188     
  0.475565651740584     
  0.476311795743086     
  0.476976876581827     
  0.477541529994770     
  0.477988148306892     
  0.478301872322184     
  0.478470878979686     
  0.478486935374046     
  0.478345604614808     
  0.478046424387337     
  0.479531005144166     
  0.478843938766092     
  0.477996530195513     
  0.477005896829672     
  0.475892398132119     
  0.474678939099922     
  0.473390247406006     
  0.472052129771007     
  0.470690917002508     
  0.469332454256726     
  0.468001851691208     
  0.466722924406657     
  0.465517355687944     
  0.464404958851327     
  0.463402781864708     
  0.462525251733636     
  0.461783959716350     
  0.461187417130665     
  0.460741123412141     
  0.460447506384529     
  0.460305949021936     
  0.460312850279815     
  0.460461719088595     
  0.460743311122289     
  0.461145803766134     
  0.461655019072875     
  0.462254738903882     
  0.462926857037716     
  0.463652022883228     
  0.464409970742709     
  0.465179765366813     
  0.465940873176792     
  0.466673144727718     
  0.467357802549333     
  0.467977934475341     
  0.468518907659240     
  0.468969052802693     