# vtk DataFile Version 2.0
Horizon data
ASCII
DATASET POLYDATA
POINTS  2812 float
  -5.53041394544218       0.000000000000000E+000  0.189446605162958     
  -5.53044078159776       6.646188622483533E-004  0.189461969850023     
  -5.53052240168247       1.324807614180405E-003  0.189477689546709     
  -5.53065826206745       1.976057954413814E-003  0.189493657102846     
  -5.53084744866044       2.613920329840713E-003  0.189509763614783     
  -5.53108868276907       3.234034352681564E-003  0.189525899164593     
  -5.53138032946346       3.832158670832830E-003  0.189541953567951     
  -5.53172040839097       4.404200085232766E-003  0.189557817125694     
  -5.53210660697919       4.946241711469995E-003  0.189573381373949     
  -5.53253629594548       5.454569987846372E-003  0.189588539827710     
  -5.53300654701541       5.925700338587198E-003  0.189603188712704     
  -5.53351415273544       6.356401308862806E-003  0.189617227680441     
  -5.53405564824990       6.743716997725266E-003  0.189630560501381     
  -5.53462733489720       7.084987625936652E-003  0.189643095731278     
  -5.53522530546615       7.377868087918117E-003  0.189654747345889     
  -5.53584547094007       7.620344350612799E-003  0.189665435339443     
  -5.53648358854477       7.810747576844745E-003  0.189675086282466     
  -5.53713529090552       7.947765866667697E-003  0.189683633834842     
  -5.53779611610919       8.030453527114388E-003  0.189691019210296     
  -5.53846153846000       8.058237798545949E-003  0.189697191588796     
  -5.53912699971114       8.030922984316229E-003  0.189702108473784     
  -5.53978794055038       7.948691949549775E-003  0.189705735991505     
  -5.54043983211495       7.812104974317215E-003  0.189708049130154     
  -5.54107820731032       7.622095966203340E-003  0.189709031917005     
  -5.54169869170842       7.379966057020608E-003  0.189708677532134     
  -5.54229703380374       7.087374628041774E-003  0.189706988357861     
  -5.54286913441028       6.746327827426710E-003  0.189703975963481     
  -5.54341107498889       6.359164662320012E-003  0.189699661025378     
  -5.54391914470243       5.928540766222752E-003  0.189694073183101     
  -5.54438986600615       5.457409959526083E-003  0.189687250832447     
  -5.54482001859177       4.949003737379512E-003  0.189679240857099     
  -5.54520666151659       4.406808834207320E-003  0.189670098300817     
  -5.54554715336278       3.834543028052450E-003  0.189659885982611     
  -5.54583917028745       3.236129360403133E-003  0.189648674057771     
  -5.54608072183981       2.615668958146656E-003  0.189636539528007     
  -5.54627016443912       1.977412653717230E-003  0.189623565704314     
  -5.54640621242473       1.325731607300736E-003  0.189609841626546     
  -5.54648794660740       6.650871410872713E-004  0.189595461443927     
  -5.54651482027005       9.862425791308470E-019  0.189580523761056     
  -5.54648666258462      -6.649807439267985E-004  0.189565130954147     
  -5.54640367943027      -1.325308925283145E-003  0.189549388462442     
  -5.54626645161706      -1.976472439478191E-003  0.189533404059907     
  -5.54607593053732      -2.614024101926020E-003  0.189517287112394     
  -5.54583343128489      -3.233612000480168E-003  0.189501147825552     
  -5.54554062329958      -3.831009134569660E-003  0.189485096488760     
  -5.54519951861099      -4.402142141068976E-003  0.189469242720375     
  -5.54481245777158      -4.943118914807825E-003  0.189453694719491     
  -5.54438209358378      -5.450254940694474E-003  0.189438558529342     
  -5.54391137274012      -5.920098164586536E-003  0.189423937317331     
  -5.54340351550809      -6.349452241189053E-003  0.189409930676486     
  -5.54286199360370      -6.735398009284587E-003  0.189396633952959     
  -5.54229050640813      -7.075313057397149E-003  0.189384137603958     
  -5.54169295569187      -7.366889256456216E-003  0.189372526590212     
  -5.54107341901899      -7.608148150056601E-003  0.189361879806839     
  -5.54043612201157      -7.797454107406238E-003  0.189352269556162     
  -5.53978540966065      -7.933525158922886E-003  0.189343761065723     
  -5.53912571687460      -8.015441449592951E-003  0.189336412054437     
  -5.53846153846000      -8.042651260557039E-003  0.189330272349502     
  -5.53779739873257      -8.014974564857504E-003  0.189325383556355     
  -5.53713782095710      -7.932604098799003E-003  0.189321778783631     
  -5.53648729681576      -7.796103945863401E-003  0.189319482424762     
  -5.53585025610357      -7.606405645519244E-003  0.189318509997490     
  -5.53523103684751      -7.364801854510478E-003  0.189318868042253     
  -5.53463385604338      -7.072937603239573E-003  0.189320554080035     
  -5.53406278120013      -6.732799204618406E-003  0.189323556629927     
  -5.53352170287669      -6.346700887190247E-003  0.189327855286297     
  -5.53301430838992      -5.917269238371840E-003  0.189333420855092     
  -5.53254405686593      -5.447425557269966E-003  0.189340215548454     
  -5.53211415579840      -4.940366229635505E-003  0.189348193236462     
  -5.53172753926904      -4.399541250071647E-003  0.189357299754458     
  -5.53138684797545      -3.828631028551799E-003  0.189367473264063     
  -5.53109441120078      -3.231521629564467E-003  0.189378644665665     
  -5.53085223084816      -2.612278602723263E-003  0.189390738059797     
  -5.53066196765030      -1.975119573393269E-003  0.189403671254535     
  -5.53052492965172      -1.324385770722317E-003  0.189417356315731     
  -5.53044206304676      -6.645126783571104E-004  0.189431700156604     
  -5.51439334666594       0.000000000000000E+000  0.187951973699375     
  -5.51446973594300       1.988017436010486E-003  0.187997545772916     
  -5.51470995793701       3.963437790204182E-003  0.188044188347564     
  -5.51511249607560       5.912780556595278E-003  0.188091584934860     
  -5.51567472562041       7.822722728735087E-003  0.188139413385389     
  -5.51639292805431       9.680190032169883E-003  0.188187349243107     
  -5.51726231374491       1.147244670317354E-002  0.188235062889309     
  -5.51827705056499       1.318718410671529E-002  0.188282229506360     
  -5.51943030142974       1.481260635211574E-002  0.188328526089957     
  -5.52071426824370       1.633751314832459E-002  0.188373634944631     
  -5.52212024296513       1.775137893992128E-002  0.188417245888455     
  -5.52363866534577       1.904442776649027E-002  0.188459058430450     
  -5.52525918700208       2.020770325428289E-002  0.188498783903282     
  -5.52697074141618       2.123313317463660E-002  0.188536147532737     
  -5.52876161941023       2.211358803542979E-002  0.188570890424946     
  -5.53061954971478       2.284293282837034E-002  0.188602768302235     
  -5.53253178324664       2.341607378806217E-002  0.188631566093342     
  -5.53448518264485       2.382899400238106E-002  0.188657080398481     
  -5.53646631344005       2.407878511957501E-002  0.188679133402622     
  -5.53846153846000       2.416366928798637E-002  0.188697571190945     
  -5.54045711383541       2.408301328121154E-002  0.188712264886187     
  -5.54243928602560       2.383733430558500E-002  0.188723111606174     
  -5.54439438911442       2.342829740837027E-002  0.188730035233084     
  -5.54630894161918       2.285870447742210E-002  0.188732986987121     
  -5.54816974192875       2.213247460833812E-002  0.188731943342487     
  -5.54996396237237       2.125461774593110E-002  0.188726916284100     
  -5.55167923934919       2.023119730783030E-002  0.188717937978682     
  -5.55330376117433       1.906928813321007E-002  0.188705070616360     
  -5.55482635126455       1.777692554825479E-002  0.188688403503888     
  -5.55623654666852       1.636304776897833E-002  0.188668052415993     
  -5.55752467124283       1.483743181282093E-002  0.188644158755335     
  -5.55868190292703       1.321062344106285E-002  0.188616888527830     
  -5.55970033462587       1.149386170141472E-002  0.188586431140999     
  -5.56057302826616       9.698998681080590E-003  0.188552998034048     
  -5.56129406150031       7.838415060462598E-003  0.188516819844526     
  -5.56185856770864       5.924932480994863E-003  0.188478150054003     
  -5.56226276667207       3.971722524220982E-003  0.188437255216865     
  -5.56250398890003       1.992214242566754E-003  0.188394418213957     
  -5.56258069118948       2.953744318830069E-018  0.188349934978567     
  -5.56249246428383      -1.991259285641719E-003  0.188304112387171     
  -5.56224003251363      -3.967928864148464E-003  0.188257266084459     
  -5.56182524550891      -5.916494154001378E-003  0.188209718258977     
  -5.56125106213211      -7.823653358713907E-003  0.188161795385156     
  -5.56052152686084      -9.676408070197658E-003  0.188113826161832     
  -5.55964173871179      -1.146215117848998E-002  0.188066138266129     
  -5.55861781345470      -1.316875169899103E-002  0.188019057718251     
  -5.55745683881693      -1.478463571653657E-002  0.187972905448511     
  -5.55616682357963      -1.629886314409802E-002  0.187927995408143     
  -5.55475664076442      -1.770119975868446E-002  0.187884632441265     
  -5.55323596539215      -1.898218411048772E-002  0.187843110240914     
  -5.55161520728116      -2.013318893154310E-002  0.187803709404063     
  -5.54990543937212      -2.114647671330013E-002  0.187766695599062     
  -5.54811832208198      -2.201524916528559E-002  0.187732317856950     
  -5.54626602428500      -2.273369055382795E-002  0.187700809015784     
  -5.54436114091215      -2.329700322677553E-002  0.187672375980841     
  -5.54241660909426      -2.370143890637826E-002  0.187647210993191     
  -5.54044562143555      -2.394432064050716E-002  0.187625482179856     
  -5.53846153846000      -2.402405902299523E-002  0.187607334538424     
  -5.53647780014700      -2.394016118211435E-002  0.187592889048554     
[...]
POINT_DATA  2812

SCALARS shape float 1
LOOKUP_TABLE default
  0.189766447426275     
  0.189751496271910     
  0.189736089583053     
  0.189720332894039     
  0.189704334076028     
  0.189688202593504     
  0.189672048751504     
  0.189655982938873     
  0.189640114872824     
  0.189624552850031     
  0.189609403009363     
  0.189594768611266     
  0.189580749338582     
  0.189567440623453     
  0.189554933004665     
  0.189543311519567     
  0.189532655134431     
  0.189523036216785     
  0.189514520052994     
  0.189507164414029     
  0.189501019172023     
  0.189496125969936     
  0.189492517946261     
  0.189490219516429     
  0.189489246212177     
  0.189489604579841     
  0.189491292138170     
  0.189494297395901     
  0.189498599928999     
  0.189504170517082     
  0.189510971338214     
  0.189518956220871     
  0.189528070951547     
  0.189538253636094     
  0.189549435112585     
  0.189561539413101     
  0.189574484271594     
  0.189588181674613     
  0.189602538451427     
  0.189617456899808     
  0.189632835443460     
  0.189648569316898     
  0.189664551273317     
  0.189680672310854     
  0.189696822412451     
  0.189712891294415     
  0.189728769158650     
  0.189744347443467     
  0.189759519567824     
  0.189774181663862     
  0.189788233292591     
  0.189801578137688     
  0.189814124672436     
  0.189825786795014     
  0.189836484427497     
  0.189846144074187     
  0.189854699335143     
  0.189862091371071     
  0.189868269316108     
  0.189873190635371     
  0.189876821424556     
  0.189879136649301     
  0.189880120322474     
  0.189879765618003     
  0.189878074920355     
  0.189875059809257     
  0.189870740979743     
  0.189865148098091     
  0.189858319594724     
  0.189850302395609     
  0.189841151594145     
  0.189830930065997     
  0.189819708029724     
  0.189807562556477     
  0.189794577032389     
  0.189780840577610     
  0.189602538451427     
  0.189617456899808     
  0.189632835443460     
  0.189648569316898     
  0.189664551273317     
  0.189680672310854     
  0.189696822412451     
  0.189712891294415     
  0.189728769158650     
  0.189744347443467     
  0.189759519567824     
  0.189774181663862     
  0.189788233292591     
  0.189801578137688     
  0.189814124672436     
  0.189825786795014     
  0.189836484427497     
  0.189846144074187     
  0.189854699335143     
  0.189862091371071     
  0.189868269316108     
  0.189873190635371     
  0.189876821424556     
  0.189879136649301     
  0.189880120322474     
  0.189879765618003     
  0.189878074920355     
  0.189875059809257     
  0.189870740979743     
  0.189865148098091     
  0.189858319594724     
  0.189850302395609     
  0.189841151594145     
  0.189830930065997     
  0.189819708029724     
  0.189807562556477     
  0.189794577032389     
  0.189780840577610     
  0.189766447426275     
  0.189751496271910     
  0.189736089583053     
  0.189720332894039     
  0.189704334076028     
  0.189688202593504     
  0.189672048751504     
  0.189655982938873     
  0.189640114872824     
  0.189624552850031     
  0.189609403009363     
  0.189594768611266     
  0.189580749338582     
  0.189567440623453     
  0.189554933004665     
  0.189543311519567     
  0.189532655134431     
  0.189523036216785     
  0.189514520052994     
  0.189507164414029     
  0.189501019172023     
  0.189496125969936     
  0.189492517946261     
  0.189490219516429     
  0.189489246212177     
  0.189489604579841     
  0.189491292138170     
  0.189494297395901     
  0.189498599928999     
  0.189504170517082     
  0.189510971338214     
  0.189518956220871     
  0.189528070951547     
  0.189538253636095     
  0.189549435112585     
  0.189561539413101     
  0.189574484271594     
  0.189588181674613     
  0.189442180063882     
  0.189486733767105     
  0.189532677968682     
  0.189579701412760     
  0.189627485026529     
  0.189675704029998     
  0.189724031317711     
  0.189772134579396     
  0.189819686345051     
  0.189866360972818     
  0.189911838173019     
  0.189955805230875     
  0.189997959201685     
  0.190038009060945     
  0.190075677790716     
  0.190110704383077     
  0.190142842565656     
  0.190171875510984     
  0.190197598158371     
  0.190219831240802     
  0.190238419586636     
  0.190253233266235     
  0.190264168557320     
  0.190271148720514     
  0.190274124577698     
  0.190273072410972     
  0.190268004303118     
  0.190258952683520     
  0.190245980250135     
  0.190229177038966     
  0.190208659770124     
  0.190184571000919     
  0.190157078092826     
  0.190126372000008     
  0.190092665888223     
  0.190056192278335     
  0.190017206721773     
  0.189975977949525     
  0.189932791152357     
  0.189887944680062     
  0.189841747914977     
  0.189794519079252     
  0.189746582992331     
  0.189698268794536     
  0.189649907868763     
  0.189601830567848     
  0.189554365574181     
  0.189507836438696     
  0.189462559676260     
  0.189418842620256     
  0.189376981361934     
  0.189337258789536     
  0.189299942740782     
  0.189265284280225     
  0.189233518147207     
  0.189204852936535     
  0.189179482459060     
  0.189157576214681     
  0.189139280384992     
  0.189124716937537     
  0.189113982874200     
  0.189107149627330     
  0.189104262607530     
  0.189105344082624     
  0.189110379888889     
  0.189119339591029     
  0.189132163236172     
  0.189148764994332     
  0.189169033679696     
  0.189192833441315     
  0.189220004620733     
  0.189250364773067     
  0.189283709846635     
  0.189319814779893     
  0.189358437880999     
  0.189399318250662     
  0.189285731469479     
  0.189359481041457     
  0.189435558377663     
  0.189513451340209     
  0.189592639395013     
  0.189672573684797     
  0.189752718305722     
  0.189832528718550     
  0.189911460635210     
  0.189988981333033     
  0.190064539474097     
  0.190137619567765     
  0.190207713303196     
  0.190274310648460     
  0.190336993396633     
  0.190395301516016     
  0.190448825749080     
  0.190497189538520     
  0.190540046256500     
  0.190577106925509     
  0.190608104027765     
  0.190632817708323     
  0.190651071991502     
  0.190662736609289     
  0.190667726439087     
  0.190666005417979     
  0.190657584656283     
  0.190642522798475     
  0.190620945005431     
  0.190592960241076     
  0.190558785441081     
  0.190518661162820     
  0.190472859504818     
  0.190421721484781     
  0.190365598547028     
  0.190304884667316     
  0.190240005356110     
  0.190171413500766     
  0.190099589887583     
  0.190025033376871     
  0.189948261377392     
  0.189869805196597     
  0.189790214854236     
  0.189710017548306     
  0.189629775241733     
  0.189550039584183     
  0.189471356632240     
  0.189394294804789     
  0.189319307518514     
  0.189246929782531     
  0.189177649899086     
  0.189111907993938     
  0.189050209373434     
  0.188992931851340     
  0.188940452351498     
  0.188893114206528     
  0.188851218837079     
  0.188815057468454     
  0.188784860847673     
  0.188760827445489     
  0.188743115557225     
  0.188731852129276     
  0.188727088327823     
  0.188728869254647     
  0.188737186365366     
  0.188751987091181     
  0.188773208360693     
  0.188800637255942     
  0.188834119863520     
  0.188873434605114     
  0.188918291791188     
  0.188968470869180     
  0.189023599292727     
  0.189083306428102     
  0.189147189932790     
  0.189214804861239     
  0.189132904708861     
  0.189235198758993     
  0.189340767790958     
  0.189448913330125     
  0.189558885363741     
  0.189669945962861     
  0.189781340483621     
  0.189892316434539     
  0.190002100085340     
  0.190109947727558     
  0.190215123430089     
  0.190316943424845     
  0.190414633621879     
  0.190507510614229     
  0.190594913391873     
  0.190676197419516     
  0.190750862081320     
  0.190818353360282     
  0.190878191196411     
  0.190929941320554     
  0.190973250989423     
  0.191007800040176     
  0.191033341336131     
  0.191049681824840     
  0.191056704142235     
  0.191054354094079     
  0.191042676138521     
  0.191021658360126     
  0.190991487827646     
  0.190952390986844     
  0.190904675857079     
  0.190848687064639     
  0.190784787868075     
  0.190713420836177     
  0.190635060399523     
  0.190550345198405     
  0.190459850749107     
  0.190364217981114     
  0.190264121014654     
  0.190160257471291     
  0.190053353575824     
  0.189944169928820     
  0.189833418969146     
  0.189721877496493     
  0.189610312854788     
  0.189499490598192     
  0.189390177461902     
  0.189283113218874     
  0.189179023842589     
  0.189078602411252     
  0.188982551885854     
  0.188891498623848     
  0.188806041293041     
  0.188726749661636     
  0.188654101678436     
  0.188588576610558     
  0.188530600932332     
  0.188480540947601     
  0.188438768960114     
  0.188405539171176     
  0.188381083988742     
  0.188365509605408     
  0.188358928921017     
  0.188361385849289     
  0.188372858346688     
  0.188393321001638     
  0.188422627838109     
  0.188460587753636     
  0.188506944193841     
  0.188561395629275     
  0.188623591340603     
  0.188693122301858     
  0.188769551870419     
  0.188852304464642     
  0.188940847347594     
  0.189034593994434     
  0.188984244233276     
  0.189114222803414     
  0.189248393378899     
  0.189385859811139     
  0.189525715645276     
  0.189667018354598     
  0.189808812310370     
  0.189950146761286     
  0.190090042609485     
  0.190227529042762     
  0.190361647305097     
  0.190491457059590     
  0.190616048185081     
  0.190734586923548     
  0.190846186358887     
  0.190950076269030     
  0.191045521469703     
  0.191131833777494     
  0.191208382759648     
  0.191274606055866     
  0.191330029976001     
  0.191374246449038     
  0.191406931529797     
  0.191427836918946     
  0.191436812477357     
  0.191433798193090     
  0.191418807988569     
  0.191391944517109     
  0.191353379082812     
  0.191303433860810     
  0.191242446750056     
  0.191170841719104     
  0.191089152506196     
  0.190997942509607     
  0.190897888008220     
  0.190789720085862     
  0.190674203189798     
  0.190552152203671     
  0.190424429444724     
  0.190291923938315     
  0.190155568978130     
  0.190016320013808     
  0.189875156887671     
  0.189733059036336     
  0.189591005225233     
  0.189449983046778     
  0.189310942361819     
  0.189174815654459     
  0.189042518270670     
  0.188914921549036     
  0.188792881042627     
  0.188677226574780     
  0.188568703877654     
  0.188468020643242     
  0.188375832328233     
  0.188292725909052     
  0.188219239726670     
  0.188155845569585     
  0.188102945887034     
  0.188060876876400     
  0.188029906887641     
  0.188010228774080     
  0.188001968294453     
  0.188005172854899     
  0.188019839083367     
  0.188045865501310     
  0.188083081836327     
  0.188131257668625     
  0.188190062175058     
  0.188259113845838     
  0.188337953836477     
  0.188426091351708     
  0.188522953612381     
  0.188627919917727     
  0.188740285444507     
  0.188859320697719     
  0.188841891334310     
  0.188998446598203     
  0.189160116872558     
  0.189325830932478     
  0.189494496898272     
  0.189664965098941     
  0.189836078756879     
  0.190006686084968     
  0.190175600087825     
  0.190341653611503     
  0.190503715308142     
  0.190660662664067     
  0.190811367636958     
  0.190954780585762     
  0.191089870552618     
  0.191215672250410     
  0.191331269140905     
  0.191435829832655     
  0.191528585274485     
  0.191608852809316     
  0.191676054388513     
  0.191729693086489     
  0.191769367129139     
  0.191794767295299     
  0.191805701786479     
  0.191802085639113     
  0.191783935718593     
  0.191751394773831     
  0.191704703231547     
  0.191644198615476     
  0.191570324516082     
  0.191483620964363     
  0.191384702567097     
  0.191274269287571     
  0.191153117047210     
  0.191022149500465     
  0.190882317239487     
  0.190734610767747     
  0.190580090264074     
  0.190419843869792     
  0.190255005085668     
  0.190086734578333     
  0.189916216343134     
  0.189744623535634     
  0.189573132248383     
  0.189402940383238     
  0.189235181879824     
  0.189070988543167     
  0.188911483397423     
  0.188757743556965     
  0.188610761036540     
  0.188471521074302     
  0.188340906540994     
  0.188219793073200     
  0.188108933890532     
  0.188009039978385     
  0.187920738101212     
  0.187844580915406     
  0.187781045964847     
  0.187730530801435     
  0.187693352727572     
  0.187669740052287     
  0.187659848288336     
  0.187663757563067     
  0.187681434896556     
  0.187712779541250     
  0.187757560576790     
  0.187815517332535     
  0.187886241733746     
  0.187969298994763     
  0.188064154280720     
  0.188170178109770     
  0.188286701498214     
  0.188412987376478     
  0.188548205432490     
  0.188691481838445     
  0.188705913598188     
  0.188887814572011     
  0.189075712207992     
  0.189268417823487     
  0.189464650653777     
  0.189663009126695     
  0.189862148655196     
  0.190060766754140     
  0.190257493778206     
  0.190451009790623     
  0.190639961178818     
  0.190823006571802     
  0.190998847202291     
  0.191166213994016     
  0.191323910519170     
  0.191470788213120     
  0.191605772776538     
  0.191727907960836     
  0.191836302042591     
  0.191930130990812     
  0.192008700452541     
  0.192071440611595     
  0.192117857816640     
  0.192147592974823     
  0.192160435082903     
  0.192156278331623     
  0.192135129051859     
  0.192097124660312     
  0.192042600996240     
  0.191971949410456     
  0.191885648205245     
  0.191784335907300     
  0.191668776785725     
  0.191539839618678     
  0.191398378902587     
  0.191245431559026     
  0.191082167136260     
  0.190909772569267     
  0.190729470763298     
  0.190542559723053     
  0.190350351641717     
  0.190154246595288     
  0.189955626135945     
  0.189755761872564     
  0.189556039305747     
  0.189357892506361     
  0.189162675320059     
  0.188971727047674     
  0.188786327806480     
  0.188607667159485     
  0.188436909456042     
  0.188275156932730     
  0.188123482739632     
  0.187982888283203     
  0.187854273117559     
  0.187738415017658     
  0.187636030708696     
  0.187547749777842     
  0.187474120845287     
  0.187415604224449     
  0.187372552977215     
  0.187345233080653     
  0.187333837922264     
  0.187338441074044     
  0.187359020653501     
  0.187395455463389     
  0.187447447387100     
  0.187514644753248     
  0.187596681988663     
  0.187693035901967     
  0.187803069959224     
  0.187926085372318     
  0.188061335482487     
  0.188207936998848     
  0.188364907006190     
  0.188531231864450     
  0.188576389046970     
  0.188782210743177     
  0.188994906321423     
  0.189213116168062     
  0.189435380833932     
  0.189660159420084     
  0.189885955736666     
  0.190111234647862     
  0.190334470194796     
  0.190554123989521     
  0.190768640918192     
  0.190976507826147     
  0.191176241304431     
  0.191366412498179     
  0.191545639892224     
  0.191712616651727     
  0.191866092866129     
  0.192004943952852     
  0.192128211817244     
  0.192234960035940     
  0.192324387118896     
  0.192395836945597     
  0.192448737444123     
  0.192482674744115     
  0.192497390956527     
  0.192492772057079     
  0.192468821824930     
  0.192425708091184     
  0.192363756537777     
  0.192283394080153     
  0.192185200549315     
  0.192069944600829     
  0.191938469219790     
  0.191791746643870     
  0.191630858281139     
  0.191456962512785     
  0.191271360058653     
  0.191075396781845     
  0.190870514290257     
  0.190658201018076     
  0.190439953870502     
  0.190217352676827     
  0.189991956453895     
  0.189765272786780     
  0.189538884467846     
  0.189314353111197     
  0.189093226216285     
  0.188876991215003     
  0.188667063806993     
  0.188464843397697     
  0.188271604126202     
  0.188088606488178     
  0.187917032792444     
  0.187758002878270     
  0.187612555585549     
  0.187481603129574     
  0.187365887428111     
  0.187266146733160     
  0.187183010020039     
  0.187116997382210     
  0.187068498316649     
  0.187037802772249     
  0.187025103359742     
  0.187030436139141     
  0.187053782583575     
  0.187095026133918     
  0.187153824989401     
  0.187229818301670     
  0.187322540936716     
  0.187431412849558     
  0.187555725741526     
  0.187694736507112     
  0.187847568445823     
  0.188013243552466     
  0.188190699518755     
  0.188378798197176     
  0.188453805983499     
  0.188681964098089     
  0.188917842563081     
  0.189159942397913     
  0.189406628405745     
  0.189656237850382     
  0.189907096435657     
  0.190157537151783     
  0.190405755908675     
  0.190650000360334     
  0.190888592695028     
  0.191119808741576     
  0.191342016325777     
  0.191553614929775     
  0.191753079934333     
  0.191938893204986     
  0.192109728501358     
  0.192264339012456     
  0.192401620791799     
  0.192520558503200     
  0.192620238998424     
  0.192699926111243     
  0.192758971278378     
  0.192796925073694     
  0.192813501770317     
  0.192808569726523     
  0.192782064081930     
  0.192734138135381     
  0.192665163860508     
  0.192575692439032     
  0.192466360625358     
  0.192337945359708     
  0.192191463684329     
  0.192027962009215     
  0.191848619141737     
  0.191654856719618     
  0.191448142505188     
  0.191229966047310     
  0.191001914396085     
  0.190765671064131     
  0.190522918089451     
  0.190275427673275     
  0.190024905968908     
  0.189773107981911     
  0.189521787523551     
  0.189272611439971     
  0.189027223918214     
  0.188787338483699     
  0.188554510907937     
  0.188330233880393     
  0.188115959857341     
  0.187913083323746     
  0.187723003618688     
  0.187546801917228     
  0.187385572198594     
  0.187240400856644     
  0.187112189082682     
  0.187001744783326     
  0.186909748759976     
  0.186836768836112     
  0.186783234211114     
  0.186749482816126     
  0.186735665461656     
  0.186741773360063     
  0.186767791240263     
  0.186813516609073     
  0.186878761508909     
  0.186962982106066     
  0.187065633311296     
  0.187186148501526     
  0.187323759431434     
  0.187477583984966     
  0.187646670445057     
  0.187830037367406     
  0.188026513798177     
  0.188234870426616     
  0.188339103247034     
  0.188587841613883     
  0.188845161251590     
  0.189109428496925     
  0.189378816575368     
  0.189651558000519     
  0.189925732174645     
  0.190199488408876     
  0.190470913144302     
  0.190738093826633     
  0.190999090297486     
  0.191252057371574     
  0.191495202056240     
  0.191726718908210     
  0.191944933051577     
  0.192148269342154     
  0.192335212116331     
  0.192504451159785     
  0.192654708048792     
  0.192784935866810     
  0.192894152647309     
  0.192981549141599     
  0.193046402433462     
  0.193088207117677     
  0.193106618040093     
  0.193101398376370     
  0.193072548831222     
  0.193020259993256     
  0.192944856243072     
  0.192846900377815     
  0.192727107186844     
  0.192586401346242     
  0.192425827713692     
  0.192246553517518     
  0.192049985664319     
  0.191837651678807     
  0.191611161647961     