# vtk DataFile Version 2.0
Horizon data
ASCII
DATASET POLYDATA
POINTS  2812 float
   4.47226235755651       0.000000000000000E+000  0.252448861410942     
   4.47222499084350       8.855110644870555E-004  0.252431401110335     
   4.47211465015735       1.764853736859876E-003  0.252414316515657     
   4.47193210337491       2.632027572778475E-003  0.252397724088650     
   4.47167861037309       3.481117491409967E-003  0.252381736880477     
   4.47135591407177       4.306333946373589E-003  0.252366463767686     
   4.47096622822062       5.102052184785967E-003  0.252352008717791     
   4.47051222202155       5.862850334141546E-003  0.252338470089236     
   4.46999700169854       6.583546066019562E-003  0.252325939970203     
   4.46942408914642       7.259231596329974E-003  0.252314503560484     
   4.46879739780760       7.885306793897526E-003  0.252304238600322     
   4.46812120594351       8.457510182533752E-003  0.252295214849809     
   4.46740012748320       8.971947636259791E-003  0.252287493622119     
   4.46663908064597       9.425118582916088E-003  0.252281127373501     
   4.46584325454879       9.813939547927732E-003  0.252276159352596     
   4.46501807402095       1.013576488738664E-002  0.252272623311286     
   4.46416916285915       1.038840457776622E-002  0.252270543278899     
   4.46330230576566       1.057013894840482E-002  0.252269933401204     
   4.46242340921987       1.067973026228690E-002  0.252270797845236     
   4.46153846154000       1.071643107052246E-002  0.252273130770581     
   4.46065349239680       1.067998928618591E-002  0.252276916367340     
   4.45977453204430       1.057064994373207E-002  0.252282128960581     
   4.45890757053482       1.038915363097089E-002  0.252288733180676     
   4.45805851718569       1.013673160146095E-002  0.252296684198474     
   4.45723316056419       9.815097596081896E-003  0.252305928023908     
   4.45643712925444       9.426436423373364E-003  0.252316401866159     
   4.45567585366586       8.973389368884799E-003  0.252328034553161     
   4.45495452913711       8.459036524165121E-003  0.252340747007797     
   4.45427808058199       7.886876146029969E-003  0.252354452777807     
   4.45365112891525       7.260801176268221E-003  0.252369058616025     
   4.45307795948558       6.585073070876280E-003  0.252384465107256     
   4.45256249273154       5.864293106122492E-003  0.252400567337777     
   4.45210825726272       5.103371346125561E-003  0.252417255603125     
   4.45171836555366       4.307493473057799E-003  0.252434416149592     
   4.45139549242203       3.482085696433170E-003  0.252451931944567     
   4.45114185644523       2.632777972086890E-003  0.252469683470672     
   4.45095920445066       1.765365774273734E-003  0.252487549538400     
   4.45084879919526       8.857706756859868E-004  0.252505408111848     
   4.45081141032916       1.313684892963972E-018  0.252523137141958     
   4.45084730871614      -8.858941803074535E-004  0.252540615401618     
   4.45095626416134      -1.765856421780926E-003  0.252557723316879     
   4.45113754657333      -2.633869379877623E-003  0.252574343788551     
   4.45138993056360      -3.483995084841812E-003  0.252590362998429     
   4.45171170346295      -4.310415736984126E-003  0.252605671194479     
   4.45210067670950      -5.107473736376831E-003  0.252620163449411     
   4.45255420053933      -5.869710665681487E-003  0.252633740387202     
   4.45306918188624      -6.591904950665174E-003  0.252646308872335     
   4.45364210537426      -7.269107930931573E-003  0.252657782656754     
   4.45426905726292      -7.896678083469999E-003  0.252668082979809     
   4.45494575218399      -8.470313153762806E-003  0.252677139116790     
   4.45566756248671      -8.986079963319330E-003  0.252684888872007     
   4.45642954998937      -9.440441678533267E-003  0.252691279012777     
   4.45722649991639      -9.830282343575176E-003  0.252696265641094     
   4.45805295678357      -1.015292849949951E-002  0.252699814500241     
   4.45890326197911      -1.040616773271104E-002  0.252701901214060     
   4.45977159277512      -1.058826401822698E-002  0.252702511457107     
   4.46065200249337      -1.069796974659942E-002  0.252701641054456     
   4.46153846154000      -1.073453434772529E-002  0.252699296010399     
   4.46242489901783      -1.069770944985419E-002  0.252695492465870     
   4.46330524462013      -1.058775053768567E-002  0.252690256584906     
   4.46417347050823      -1.040541509929888E-002  0.252683624371032     
   4.46502363287551      -1.015195727754866E-002  0.252675641414926     
   4.46584991290331      -9.829119067263197E-003  0.252666362575274     
   4.46664665681921      -9.439118124863869E-003  0.252655851595189     
   4.46740841477567      -8.984632281677001E-003  0.252644180657034     
   4.46812997827637      -8.468780876011934E-003  0.252631429878962     
   4.46880641588911      -7.895103041840382E-003  0.252617686756870     
   4.46943310699792      -7.267533113445695E-003  0.252603045555881     
   4.47000577336177      -6.590373325550349E-003  0.252587606655793     
   4.47052050826476      -5.868264007026142E-003  0.252571475855272     
   4.47097380306066      -5.106151483215100E-003  0.252554763639822     
   4.47136257093435      -4.309253917029817E-003  0.252537584418800     
   4.47168416772367      -3.483025332272495E-003  0.252520055736926     
   4.47193640966663      -2.633118073943981E-003  0.252502297465896     
   4.47211758796147      -1.765343969661357E-003  0.252484430981766     
   4.47222648004978      -8.856344636383204E-004  0.252466578333861     
   4.49362361796670       0.000000000000000E+000  0.250557604345723     
   4.49350741749032       2.649023215128329E-003  0.250505782353198     
   4.49317307014064       5.278882518354053E-003  0.250455092546033     
   4.49262298604494       7.871670669742018E-003  0.250405878957495     
   4.49186103782620       1.040975358764215E-002  0.250358475096064     
   4.49089253034757       1.287588837951519E-002  0.250313195840013     
   4.48972416463067       1.525333972562477E-002  0.250270359654905     
   4.48836398543002       1.752598946958375E-002  0.250230249682936     
   4.48682132749325       1.967844445546588E-002  0.250193136301879     
   4.48510674992095       2.169613786314418E-002  0.250159269433208     
   4.48323196348363       2.356542500905352E-002  0.250128876941009     
   4.48120975068484       2.527367280996509E-002  0.250102163175842     
   4.47905387911379       2.680934239889581E-002  0.250079307670331     
   4.47677900866067       2.816206442717071E-002  0.250060463992657     
   4.47440059319393       2.932270663219935E-002  0.250045758763537     
   4.47193477740960       3.028343355078700E-002  0.250035292941089     
   4.46939828894192       3.103775649796634E-002  0.250029132519219     
   4.46680832785365       3.158057744805373E-002  0.250027321256306     
   4.46418245214241       3.190822134698079E-002  0.250029871618109     
   4.46153846154000       3.201846057291542E-002  0.250036766824400     
   4.45889427964848       3.191052986314399E-002  0.250047960937273     
   4.45626783522852       3.158513186537777E-002  0.250063379139202     
   4.45367694335043       3.104443326741156E-002  0.250082918200298     
   4.45113918712226       3.029205150708840E-002  0.250106447132531     
   4.44867180086811       2.933303175313664E-002  0.250133804956934     
   4.44629155453265       2.817381646842794E-002  0.250164814328806     
   4.44401464231748       2.682220207959951E-002  0.250199263617008     
   4.44185657329636       2.528729053238557E-002  0.250236920868580     
   4.43983206682655       2.357943029050737E-002  0.250277532240880     
   4.43795495263016       2.171014934704454E-002  0.250320823650751     
   4.43623807633769       1.969208023434041E-002  0.250366502560084     
   4.43469321113750       1.753887744341430E-002  0.250414259887617     
   4.43333097614972       1.526512771668083E-002  0.250463772036342     
   4.43216076211335       1.288625373008096E-002  0.250514703025354     
   4.43119066419081       1.041841198950454E-002  0.250566712905805     
   4.43042742696313       7.878383931694150E-003  0.250619434672708     
   4.42987639063423       5.283465166563161E-003  0.250672514998101     
   4.42954145407687       2.651347629749590E-003  0.250725591413339     
   4.42942504381340       3.932759422856811E-018  0.250778300904129     
   4.42952809366118      -2.652454705357190E-003  0.250830282395143     
   4.42985003456562      -5.287863216547400E-003  0.250881179239443     
   4.43038879479378      -7.888166925619080E-003  0.250930641695383     
   4.43114081058900      -1.043552675262447E-002  0.250978329373022     
   4.43210104750289      -1.291244698675940E-002  0.251023911989845     
   4.43326303116512      -1.530189770355599E-002  0.251067078460069     
   4.43461889037272      -1.758743362246126E-002  0.251107528865534     
   4.43615940820591      -1.975331009904378E-002  0.251144983395810     
   4.43787408393493      -2.178459422535348E-002  0.251179182704712     
   4.43975120411125      -2.366727061515614E-002  0.251209889783597     
   4.44177792257761      -2.538834097790567E-002  0.251236891676325     
   4.44394034885138      -2.693591669486398E-002  0.251260001020940     
   4.44622364426072      -2.829930365981305E-002  0.251279057405128     
   4.44861212514261      -2.946907870390810E-002  0.251293928524646     
   4.45108937218287      -3.043715746824885E-002  0.251304515094190     
   4.45363834612404      -3.119685026752966E-002  0.251310735369468     
   4.45624150624919      -3.174291278833069E-002  0.251312550139199     
   4.45888093452636      -3.207158153644377E-002  0.251309946955270     
   4.46153846154000      -3.218060091789995E-002  0.251302944114198     
   4.46419579443982      -3.206923893102515E-002  0.251291590515852     
[...]
POINT_DATA  2812

SCALARS shape float 1
LOOKUP_TABLE default
  0.252733129202456     
  0.252750874221428     
  0.252768368243793     
  0.252785491587766     
  0.252802127048550     
  0.252818160705294     
  0.252833482706986     
  0.252847988031706     
  0.252861577213809     
  0.252874157033785     
  0.252885641165795     
  0.252895950778159     
  0.252905015082385     
  0.252912771826691     
  0.252919167730386     
  0.252924158855875     
  0.252927710915549     
  0.252929799511262     
  0.252930410304656     
  0.252929539117035     
  0.252927191958109     
  0.252923384983366     
  0.252918144380442     
  0.252911506185330     
  0.252903516029823     
  0.252894228822084     
  0.252883708362709     
  0.252872026899161     
  0.252859264621846     
  0.252845509105569     
  0.252830854700466     
  0.252815401876861     
  0.252799256528836     
  0.252782529241535     
  0.252765334527494     
  0.252747790037442     
  0.252730015751179     
  0.252712133154225     
  0.252694264405974     
  0.252676531505112     
  0.252659055457996     
  0.252641955455638     
  0.252625348064811     
  0.252609346438632     
  0.252594059551839     
  0.252579591465709     
  0.252566040627391     
  0.252553499208115     
  0.252542052484512     
  0.252531778266933     
  0.252522746378382     
  0.252515018187331     
  0.252508646197335     
  0.252503673696038     
  0.252500134465762     
  0.252498052557506     
  0.252497442129794     
  0.252498307353422     
  0.252500642382708     
  0.252504431393493     
  0.252509648687693     
  0.252516258863779     
  0.252524217052174     
  0.252533469214119     
  0.252543952502167     
  0.252555595680065     
  0.252568319599383     
  0.252582037729892     
  0.252596656740332     
  0.252612077125852     
  0.252628193878111     
  0.252644897193711     
  0.252662073216355     
  0.252679604807886     
  0.252697372343141     
  0.252715254523318     
  0.252694264405974     
  0.252676531505112     
  0.252659055457996     
  0.252641955455638     
  0.252625348064811     
  0.252609346438632     
  0.252594059551839     
  0.252579591465709     
  0.252566040627391     
  0.252553499208115     
  0.252542052484512     
  0.252531778266933     
  0.252522746378382     
  0.252515018187331     
  0.252508646197335     
  0.252503673696038     
  0.252500134465762     
  0.252498052557506     
  0.252497442129794     
  0.252498307353422     
  0.252500642382708     
  0.252504431393493     
  0.252509648687693     
  0.252516258863779     
  0.252524217052174     
  0.252533469214119     
  0.252543952502167     
  0.252555595680065     
  0.252568319599383     
  0.252582037729892     
  0.252596656740332     
  0.252612077125852     
  0.252628193878111     
  0.252644897193711     
  0.252662073216355     
  0.252679604807886     
  0.252697372343141     
  0.252715254523318     
  0.252733129202456     
  0.252750874221428     
  0.252768368243793     
  0.252785491587766     
  0.252802127048550     
  0.252818160705294     
  0.252833482706986     
  0.252847988031706     
  0.252861577213809     
  0.252874157033785     
  0.252885641165795     
  0.252895950778159     
  0.252905015082385     
  0.252912771826691     
  0.252919167730386     
  0.252924158855875     
  0.252927710915549     
  0.252929799511262     
  0.252930410304656     
  0.252929539117035     
  0.252927191958109     
  0.252923384983366     
  0.252918144380442     
  0.252911506185330     
  0.252903516029823     
  0.252894228822084     
  0.252883708362709     
  0.252872026899161     
  0.252859264621846     
  0.252845509105569     
  0.252830854700466     
  0.252815401876861     
  0.252799256528836     
  0.252782529241535     
  0.252765334527494     
  0.252747790037442     
  0.252730015751179     
  0.252712133154225     
  0.252656614856788     
  0.252603583423501     
  0.252551338267957     
  0.252500234542862     
  0.252450619090758     
  0.252402828143455     
  0.252357179150429     
  0.252313993177739     
  0.252273555679637     
  0.252236139241718     
  0.252201995826243     
  0.252171355157968     
  0.252144423256118     
  0.252121381119328     
  0.252102383569771     
  0.252087558262112     
  0.252077006978863     
  0.252070796252815     
  0.252068970199667     
  0.252071541386967     
  0.252078492897468     
  0.252089778418146     
  0.252105322520539     
  0.252125021131812     
  0.252148742194326     
  0.252176323414609     
  0.252207585999814     
  0.252242316590685     
  0.252280281340204     
  0.252321224332924     
  0.252364869247607     
  0.252410921157364     
  0.252459068457068     
  0.252508984907315     
  0.252560331783675     
  0.252612766361383     
  0.252665918638596     
  0.252719432402182     
  0.252772942223684     
  0.252826082124541     
  0.252878488080992     
  0.252929800533826     
  0.252979666885510     
  0.253027743966579     
  0.253073698797532     
  0.253117217752347     
  0.253157998463825     
  0.253195758836685     
  0.253230237407000     
  0.253261195230783     
  0.253288417612958     
  0.253311715661626     
  0.253330927654595     
  0.253345920207264     
  0.253356593223595     
  0.253362864291796     
  0.253364693880398     
  0.253362069439641     
  0.253355009415446     
  0.253343563106984     
  0.253327810300906     
  0.253307860685588     
  0.253283853050269     
  0.253255951085475     
  0.253224355296740     
  0.253189281678210     
  0.253150973309081     
  0.253109695392503     
  0.253065733351581     
  0.253019390786064     
  0.252970987306017     
  0.252920856259996     
  0.252869342376341     
  0.252816800894309     
  0.252763588697837     
  0.252710071478941     
  0.252620397667282     
  0.252532502580296     
  0.252445939593590     
  0.252361295348562     
  0.252279139367744     
  0.252200031913649     
  0.252124502512923     
  0.252053058084732     
  0.251986177137330     
  0.251924307902120     
  0.251867859446378     
  0.251817211288036     
  0.251772700488905     
  0.251734621843444     
  0.251703226749389     
  0.251678725219466     
  0.251661280241676     
  0.251651008211467     
  0.251647978011439     
  0.251652211109525     
  0.251663680422344     
  0.251682310906424     
  0.251707979857788     
  0.251740516527278     
  0.251779707957425     
  0.251825292933324     
  0.251876968383188     
  0.251934390207383     
  0.251997175858893     
  0.252064903562225     
  0.252137122462908     
  0.252213348053923     
  0.252293065128519     
  0.252375738883057     
  0.252460810138995     
  0.252547702602809     
  0.252635826088438     
  0.252724583374176     
  0.252813361288366     
  0.252901554976208     
  0.252988559069786     
  0.253073774913267     
  0.253156613855080     
  0.253236505350159     
  0.253312894894969     
  0.253385251983732     
  0.253453073076424     
  0.253515883154159     
  0.253573247486822     
  0.253624763852806     
  0.253670071515445     
  0.253708854187987     
  0.253740835230183     
  0.253765792671448     
  0.253783551298750     
  0.253793986440019     
  0.253797027011801     
  0.253792646826704     
  0.253780879185507     
  0.253761807321301     
  0.253735565916006     
  0.253702338879989     
  0.253662363005311     
  0.253615918400605     
  0.253563331288656     
  0.253504970402177     
  0.253441239922694     
  0.253372593261127     
  0.253299506167087     
  0.253222486827071     
  0.253142069859976     
  0.253058809074134     
  0.252973280891011     
  0.252886074233598     
  0.252797788006081     
  0.252709027652795     
  0.252585481009407     
  0.252463398328839     
  0.252343203710262     
  0.252225709388494     
  0.252111712223473     
  0.252001977809647     
  0.251897240097251     
  0.251798212713268     
  0.251705503223869     
  0.251619746723539     
  0.251541517337467     
  0.251471352769363     
  0.251409710635382     
  0.251356978100722     
  0.251313494097301     
  0.251279525026737     
  0.251255341280962     
  0.251241089946564     
  0.251236867611388     
  0.251242703888763     
  0.251258562035925     
  0.251284339579376     
  0.251319868553617     
  0.251364920086415     
  0.251419198828564     
  0.251482347451956     
  0.251553963177400     
  0.251633528539460     
  0.251720535520647     
  0.251814414106440     
  0.251914554494728     
  0.252020300544191     
  0.252130924065890     
  0.252245677605328     
  0.252363770956607     
  0.252484451833291     
  0.252606888018927     
  0.252730245754057     
  0.252853681611105     
  0.252976342952238     
  0.253097386148492     
  0.253215974629895     
  0.253331291822455     
  0.253442537766715     
  0.253548939037582     
  0.253649756483563     
  0.253744271741659     
  0.253831823611092     
  0.253911794959064     
  0.253983622633338     
  0.254046806288657     
  0.254100892016872     
  0.254145497247604     
  0.254180302237122     
  0.254205071930937     
  0.254219625464935     
  0.254223857456470     
  0.254217736238964     
  0.254201302557789     
  0.254174674256927     
  0.254138042868370     
  0.254091670658442     
  0.254035891131004     
  0.253971103380316     
  0.253897772779007     
  0.253816405702118     
  0.253727581249677     
  0.253631925432293     
  0.253530120738237     
  0.253422867957221     
  0.253310913389233     
  0.253195034860246     
  0.253076029922598     
  0.252954738414838     
  0.252831989154811     
  0.252708622667375     
  0.252551464655224     
  0.252396119171686     
  0.252243214265770     
  0.252093781951405     
  0.251948828194799     
  0.251809326440391     
  0.251676212191732     
  0.251550366829514     
  0.251432619021633     
  0.251323731053612     
  0.251224435131302     
  0.251135369570476     
  0.251057111793827     
  0.250990189146247     
  0.250935008333435     
  0.250891941109059     
  0.250861270156462     
  0.250843200419092     
  0.250837846190575     
  0.250845242250500     
  0.250865340653873     
  0.250898013610013     
  0.250943051687904     
  0.251000168712995     
  0.251068997947421     
  0.251149098100174     
  0.251239948843182     
  0.251340953816382     
  0.251451440198493     
  0.251570704082088     
  0.251697938296695     
  0.251832307892208     
  0.251972934740294     
  0.252118866259269     
  0.252269133765229     
  0.252422726375361     
  0.252578603593132     
  0.252735698401559     
  0.252892932930996     
  0.253049224763131     
  0.253203495175715     
  0.253354674461781     
  0.253501718409477     
  0.253643601704020     
  0.253779334719457     
  0.253907975528202     
  0.254028618391783     
  0.254140413541982     
  0.254242571612041     
  0.254334318818067     
  0.254415006446662     
  0.254484097675140     
  0.254541096719876     
  0.254585589697626     
  0.254617254235178     
  0.254635854215857     
  0.254641253077281     
  0.254633411181604     
  0.254612387192672     
  0.254578333670561     
  0.254531497832027     
  0.254472213714375     
  0.254400911501098     
  0.254318107535363     
  0.254224407167956     
  0.254120482725742     
  0.254007078796413     
  0.253885003862419     
  0.253755085479174     
  0.253618232180907     
  0.253475448404932     
  0.253327723012435     
  0.253176082536427     
  0.253021576314385     
  0.252865258646860     
  0.252708197569592     
  0.252518500651398     
  0.252331071734884     
  0.252146646584050     
  0.251966467102285     
  0.251791738543339     
  0.251623627649531     
  0.251463245485210     
  0.251311651281445     
  0.251169829243917     
  0.251038707172457     
  0.250919163011380     
  0.250811950325184     
  0.250717763024650     
  0.250637231322334     
  0.250570836310044     
  0.250519007595453     
  0.250482086683891     
  0.250460316946087     
  0.250453842087509     
  0.250462706159597     
  0.250486855771503     
  0.250526139260639     
  0.250580308517931     
  0.250649021138832     
  0.250731837708416     
  0.250828228580848     
  0.250937569278154     
  0.251059147705645     
  0.251192172809256     
  0.251335807840011     
  0.251489095866230     
  0.251651026554443     
  0.251820552067377     
  0.251996523156930     
  0.252177764737746     
  0.252363068541207     
  0.252551180191810     
  0.252740823191573     
  0.252930697539977     
  0.253119498458890     
  0.253305919621280     
  0.253488666454944     
  0.253666471510278     
  0.253838087233078     
  0.254002314135721     
  0.254157986694505     
  0.254304004428938     
  0.254439312858022     
  0.254562967767992     
  0.254674067785503     
  0.254771811200599     
  0.254855507112733     
  0.254924531199143     
  0.254978395406966     
  0.255016708519148     
  0.255039194155572     
  0.255045689929575     
  0.255036152130899     
  0.255010650059628     
  0.254969371215370     
  0.254912617916188     
  0.254840804389179     
  0.254754452599705     
  0.254654188357270     
  0.254540738882369     
  0.254414920262685     
  0.254277627112319     
  0.254129870183656     
  0.253972685710142     
  0.253807190559541     
  0.253634566509280     
  0.253455999769380     
  0.253272749256142     
  0.253086082648515     
  0.252897292675248     
  0.252707666728041     
  0.252486875548293     
  0.252268760464439     
  0.252054197322997     
  0.251844623732820     
  0.251641443260439     
  0.251446004374167     
  0.251259603666597     
  0.251083455524047     
  0.250918710771635     
  0.250766423266829     
  0.250627588770328     
  0.250503096528387     
  0.250393743487696     
  0.250300225671688     
  0.250223125861840     
  0.250162951228038     
  0.250120082522868     
  0.250094803442509     
  0.250087276745528     
  0.250097544709944     
  0.250125545925540     
  0.250171110092528     
  0.250233952762403     
  0.250313678108013     
  0.250409793500153     
  0.250521686353560     
  0.250648635617589     
  0.250789832246341     
  0.250944357499681     
  0.251111224827650     
  0.251289356182850     
  0.251477587934364     
  0.251674683355576     
  0.251879331181104     
  0.252090186537632     
  0.252305831852917     
  0.252524818807395     
  0.252745651886660     
  0.252966821325887     
  0.253186799982932     
  0.253404066808670     
  0.253617114426707     
  0.253824449201217     
  0.254024623814509     
  0.254216221670454     
  0.254397891438754     
  0.254568336449782     
  0.254726318280727     
  0.254870693543723     
  0.255000432712393     
  0.255114592147224     
  0.255212330112388     
  0.255292939506559     
  0.255355850028441     
  0.255400598806157     
  0.255426847757209     
  0.255434404558511     
  0.255423226092871     
  0.255393397527413     
  0.255345138369350     
  0.255278804728154     
  0.255194886732610     
  0.255093989009688     
  0.254976856705343     
  0.254844361248382     
  0.254697469155405     
  0.254537220917645     
  0.254364774616282     
  0.254181374157688     
  0.253988331998053     
  0.253787006836816     
  0.253578820702806     
  0.253365244054046     
  0.253147763299852     
  0.252927871096502     
  0.252707077352240     
  0.252456362633369     
  0.252209169413116     
  0.251966078628306     
  0.251728710763706     
  0.251498646867144     
  0.251277404464489     
  0.251066449905294     
  0.250867154936653     
  0.250680764294623     
  0.250508497351924     
  0.250351473384366     
  0.250210679496287     
  0.250087004940110     
  0.249981253099424     
  0.249894075437775     
  0.249826008533288     
  0.249777503620096     
  0.249748877800824     
  0.249740321605184     
  0.249751887962351     
  0.249783508807661     
  0.249834994939685     
  0.249906031217755     
  0.249996174518811     
  0.250104865827910     
  0.250231404185689     
  0.250374979776943     
  0.250534668746829     
  0.250709473419665     
  0.250898291181037     
  0.251099887063581     
  0.251312961158600     
  0.251536131363290     
  0.251767918662947     
  0.252006774297519     
  0.252251136752936     
  0.252499360641443     
  0.252749751316823     
  0.253000601301511     
  0.253250181441638     
  0.253496766766210     
  0.253738640372697     
  0.253974098564079     
  0.254201479682072     
  0.254419178128618     
  0.254625634075012     
  0.254819362925249     
  0.254998950637585     
  0.255163103213246     
  0.255310621545933     
  0.255440429975559     
  0.255551569395422     
  0.255643224260893     
  0.255714736284254     
  0.255765591456224     
  0.255795416278389     
  0.255803973258793     
  0.255791212917539     
  0.255757239757320     
  0.255702308749202     
  0.255626824689773     
  0.255531346208645     
  0.255416573529446     
  0.255283375997534     
  0.255132739193383     
  0.254965754252069     
  0.254783619681390     
  0.254587658656677     
  0.254379290797583     
  0.254160008079325     
  0.253931386192514     
  0.253695031091690     
  0.253452610203064     
  0.253205824576690     
  0.252956388503786     
  0.252706000112087     
  0.252427139848055     
  0.252152679581008     
  0.251882870893104     
  0.251619506609717     
  0.251364318858647     
  0.251118976949875     
  0.250885079689715     
  0.250664155870409     
  0.250457611321372     
  0.250266724507765     
  0.250092717596670     
  0.249936696829137     
  0.249799646862841     
  0.249682438812777     
  0.249585785290582     
  0.249510335679991     
  0.249456566965221     
  0.249424815053977     
  0.249415284065082     
  0.249428044114213     
  0.249463032337991     
  0.249520046616628     
  0.249598740022516     
  0.249698604632503     
  0.249819007715072     
  0.249959197071186     
  0.250118301318987     
  0.250295328497154     
  0.250489113182823     
  0.250698446998807     
  0.250921980861117     
  0.251158287371840     
  0.251405830716806     
  0.251662982187122     
  0.251928083108783     
  0.252199354051918     
  0.252474972024872     
  0.252753074833460     
  0.253031774361397     
  0.253309164065766     
  0.253583322393935     
  0.253852332361947     
  0.254114295768884     
  0.254367335894682     
  0.254609638769060     
  0.254839470218038     
  0.255055174324428     
  0.255255163066403     
  0.255437972481516     
  0.255602267652818     
  0.255746848079315     
  0.255870625071283     
  0.255972691792109     
  0.256052315641587     
  0.256108900463946     
  0.256142035808561     
  0.256151476192443     
  0.256137173310183     
  0.256099265915741     
  0.256038041229799     
  0.255953949358258     
  0.255847606586374     
  0.255719798324910     
  0.255571476044774     
  0.255403729912560     
  0.255217804624414     
  0.255015043423923     
  0.254796912657612     
  0.254565016400045     
  0.254321017359870     
  0.254066658680194     
  0.253803756395702     
  0.253534196180477     
  0.253259850930691     
  0.252982619573264     
  0.252704411889462     
  0.252399255532020     
  0.252099526426656     
  0.251804996509365     
  0.251517615389222     
  0.251239267064344     
  0.250971737497998     
  0.250716722207179     
  0.250475852110147     
  0.250250688590465     
  0.250042619899310     
  0.249852938054818     
  0.249682856528591     
  0.249533444002341     
  0.249405626037312     
  0.249300222269658     
  0.249217924763456     
  0.249159227968605     
  0.249124513951711     
  0.249114022321933     
  0.249127845618638     
  0.249165923055683     
  0.249228041653631     
  0.249313817317102     
  0.249422691716038     
  0.249553965161176     
  0.249706811005297     
  0.249880286322926     
  0.250073320480680     
  0.250284664106282     
  0.250512972518990     
  0.250756795583918     
  0.251014567970074     
  0.251284611100241     
  0.251565204373190     
  0.251854545558119     
  0.252150689820037     
  0.252451638879794     